 Formamide B3LYP/6-311G** trial 1
GAUSSIAN             12 MOL ORBITALS    120 PRIMITIVES        6 NUCLEI
  H    1    (CENTRE  1)  -0.80999640  2.38877096  0.12570658  CHARGE =  1.0
  C    2    (CENTRE  2)   0.13399019  0.72657035  0.00022409  CHARGE =  6.0
  N    3    (CENTRE  3)  -1.96517363 -1.16381302  0.10095443  CHARGE =  7.0
  H    4    (CENTRE  4)  -1.00712050 -2.60314111 -0.25930472  CHARGE =  1.0
  H    5    (CENTRE  5)  -3.37851041 -0.22575059 -0.87535027  CHARGE =  1.0
  O    6    (CENTRE  6)   2.29993008  0.55605002 -0.02498094  CHARGE =  8.0
CENTRE ASSIGNMENTS    1  1  1  1  1  1  1  1  2  2  2  2  2  2  2  2  2  2  2  2
CENTRE ASSIGNMENTS    2  2  2  2  2  2  2  2  2  2  2  2  2  2  2  2  2  2  2  2
CENTRE ASSIGNMENTS    3  3  3  3  3  3  3  3  3  3  3  3  3  3  3  3  3  3  3  3
CENTRE ASSIGNMENTS    3  3  3  3  3  3  3  3  3  3  3  3  4  4  4  4  4  4  4  4
CENTRE ASSIGNMENTS    5  5  5  5  5  5  5  5  6  6  6  6  6  6  6  6  6  6  6  6
CENTRE ASSIGNMENTS    6  6  6  6  6  6  6  6  6  6  6  6  6  6  6  6  6  6  6  6
TYPE ASSIGNMENTS      1  1  1  1  1  2  3  4  1  1  1  1  1  1  1  1  1  2  2  2
TYPE ASSIGNMENTS      3  3  3  4  4  4  1  2  3  4  1  2  3  4  5  6  7  8  9 10
TYPE ASSIGNMENTS      1  1  1  1  1  1  1  1  1  2  2  2  3  3  3  4  4  4  1  2
TYPE ASSIGNMENTS      3  4  1  2  3  4  5  6  7  8  9 10  1  1  1  1  1  2  3  4
TYPE ASSIGNMENTS      1  1  1  1  1  2  3  4  1  1  1  1  1  1  1  1  1  2  2  2
TYPE ASSIGNMENTS      3  3  3  4  4  4  1  2  3  4  1  2  3  4  5  6  7  8  9 10
EXPONENTS  0.3386500D+02 0.5094790D+01 0.1158790D+01 0.3258400D+00 0.1027410D+00
EXPONENTS  0.7500000D+00 0.7500000D+00 0.7500000D+00 0.4563240D+04 0.6820240D+03
EXPONENTS  0.1549730D+03 0.4445530D+02 0.1302900D+02 0.1827730D+01 0.2096420D+02
EXPONENTS  0.4803310D+01 0.1459330D+01 0.2096420D+02 0.4803310D+01 0.1459330D+01
EXPONENTS  0.2096420D+02 0.4803310D+01 0.1459330D+01 0.2096420D+02 0.4803310D+01
EXPONENTS  0.1459330D+01 0.4834560D+00 0.4834560D+00 0.4834560D+00 0.4834560D+00
EXPONENTS  0.1455850D+00 0.1455850D+00 0.1455850D+00 0.1455850D+00 0.6260000D+00
EXPONENTS  0.6260000D+00 0.6260000D+00 0.6260000D+00 0.6260000D+00 0.6260000D+00
EXPONENTS  0.6293480D+04 0.9490440D+03 0.2187760D+03 0.6369160D+02 0.1882820D+02
EXPONENTS  0.2720230D+01 0.3063310D+02 0.7026140D+01 0.2112050D+01 0.3063310D+02
EXPONENTS  0.7026140D+01 0.2112050D+01 0.3063310D+02 0.7026140D+01 0.2112050D+01
EXPONENTS  0.3063310D+02 0.7026140D+01 0.2112050D+01 0.6840090D+00 0.6840090D+00
EXPONENTS  0.6840090D+00 0.6840090D+00 0.2008780D+00 0.2008780D+00 0.2008780D+00
EXPONENTS  0.2008780D+00 0.9130000D+00 0.9130000D+00 0.9130000D+00 0.9130000D+00
EXPONENTS  0.9130000D+00 0.9130000D+00 0.3386500D+02 0.5094790D+01 0.1158790D+01
EXPONENTS  0.3258400D+00 0.1027410D+00 0.7500000D+00 0.7500000D+00 0.7500000D+00
EXPONENTS  0.3386500D+02 0.5094790D+01 0.1158790D+01 0.3258400D+00 0.1027410D+00
EXPONENTS  0.7500000D+00 0.7500000D+00 0.7500000D+00 0.8588500D+04 0.1297230D+04
EXPONENTS  0.2992960D+03 0.8737710D+02 0.2567890D+02 0.3740040D+01 0.4211750D+02
EXPONENTS  0.9628370D+01 0.2853320D+01 0.4211750D+02 0.9628370D+01 0.2853320D+01
EXPONENTS  0.4211750D+02 0.9628370D+01 0.2853320D+01 0.4211750D+02 0.9628370D+01
EXPONENTS  0.2853320D+01 0.9056610D+00 0.9056610D+00 0.9056610D+00 0.9056610D+00
EXPONENTS  0.2556110D+00 0.2556110D+00 0.2556110D+00 0.2556110D+00 0.1292000D+01
EXPONENTS  0.1292000D+01 0.1292000D+01 0.1292000D+01 0.1292000D+01 0.1292000D+01
MO    1     MO 0.0        OCC NO =    2.0000000  ORB. ENERGY =  -19.120561
 -0.10565356D-03 -0.19058396D-03 -0.28097099D-03 -0.60268829D-04  0.67734675D-04
 -0.69412509D-03  0.21558197D-03  0.18150620D-04 -0.44111751D-04 -0.82118120D-04
 -0.13508354D-03 -0.18139452D-03 -0.17078978D-03 -0.14034933D-04  0.18533742D-03
  0.49247624D-03 -0.66389237D-06  0.92485465D-03  0.86543609D-03  0.67031370D-03
 -0.26045537D-03 -0.24372205D-03 -0.18877215D-03 -0.23086872D-04 -0.21603624D-04
 -0.16732842D-04  0.76733746D-04 -0.11878439D-02  0.41068695D-03  0.34423039D-04
  0.43484053D-03  0.49180192D-03 -0.90175968D-04 -0.69155600D-05 -0.12265410D-02
  0.85727740D-03  0.36926359D-03  0.88675856D-04  0.35351859D-04  0.45635356D-04
 -0.15988217D-05 -0.29386378D-05 -0.48028897D-05 -0.64470797D-05 -0.62552805D-05
 -0.62337403D-06  0.22788062D-04  0.62204523D-04 -0.70393923D-07  0.28474316D-03
  0.28006776D-03  0.21468307D-03 -0.76416578D-04 -0.75161842D-04 -0.57614539D-04
  0.22623432D-05  0.22251962D-05  0.17057013D-05 -0.47383070D-04 -0.19222216D-03
  0.67221512D-04  0.10713880D-04  0.28434535D-04 -0.13523863D-03  0.17489770D-03
  0.12619182D-04 -0.26700825D-03  0.18513034D-03  0.81877904D-04 -0.80178939D-05
  0.13984742D-03 -0.81647942D-04  0.24629860D-05  0.44428754D-05  0.65499694D-05
  0.21026098D-03 -0.14896705D-04 -0.15397576D-03  0.68563858D-04  0.54515353D-04
 -0.21574339D-04 -0.38917029D-04 -0.57373958D-04 -0.29195191D-04  0.24201955D-04
  0.10879395D-03  0.11566329D-03 -0.91510962D-04  0.66426580D+00  0.12216874D+01
  0.19996406D+01  0.26947693D+01  0.26657008D+01  0.29670010D+00  0.63034706D+00
  0.16849464D+01 -0.24066054D-02 -0.64941264D-02 -0.66678160D-02 -0.50391596D-02
 -0.13063179D-03 -0.13412562D-03 -0.10136458D-03  0.96144076D-04  0.98715511D-04
  0.74603621D-04  0.92520763D-02 -0.19166498D-02  0.20097590D-03  0.13958844D-04
 -0.20853993D-02  0.42312149D-03 -0.27759917D-04 -0.42428340D-05  0.14456988D-02
 -0.76383178D-03 -0.68186703D-03 -0.33219388D-03 -0.37643429D-04 -0.10191697D-04
MO    2     MO 0.0        OCC NO =    2.0000000  ORB. ENERGY =  -14.325362
 -0.62705935D-04 -0.11311256D-03 -0.16675773D-03 -0.11313553D-03  0.16899286D-04
 -0.69576117D-04  0.15926960D-03  0.68163869D-05  0.72089077D-05  0.13420051D-04
  0.22075858D-04  0.29644172D-04  0.27911105D-04  0.22936413D-05 -0.52648953D-05
 -0.13989813D-04  0.18859245D-07 -0.53379493D-03 -0.49950054D-03 -0.38688248D-03
 -0.46749238D-03 -0.43745769D-03 -0.33882789D-03  0.56024425D-04  0.52425058D-04
  0.40605234D-04  0.39697265D-04  0.21672905D-03  0.21370359D-03 -0.17054033D-04
  0.49648203D-03 -0.21992704D-03 -0.21079363D-03  0.20121343D-04  0.51834927D-05
  0.69828679D-04 -0.75012171D-04 -0.76281776D-03  0.15241804D-04  0.65054952D-04
  0.55285105D+00  0.10161414D+01  0.16607747D+01  0.22293135D+01  0.21629919D+01
  0.21555436D+00  0.48367960D+00  0.13202992D+01 -0.14941203D-02  0.77046343D-03
  0.75781266D-03  0.58089352D-03  0.31125143D-03  0.30614078D-03  0.23466908D-03
 -0.35401796D-02 -0.34820510D-02 -0.26691304D-02  0.84874472D-02  0.79906684D-03
 -0.94150452D-03 -0.73387434D-03 -0.12806010D-02 -0.23443141D-03 -0.28963875D-03
 -0.12814225D-04  0.21917999D-03  0.75774204D-03 -0.97692203D-03 -0.30736283D-02
  0.40979043D-03  0.18323656D-03 -0.15583299D-03 -0.28110048D-03 -0.41441620D-03
 -0.90783855D-03  0.12172986D-03  0.14685897D-02 -0.21893092D-02 -0.62376206D-03
 -0.10357240D-04 -0.18682984D-04 -0.27543643D-04 -0.35091005D-03  0.54760273D-04
 -0.10594245D-02  0.74737073D-03 -0.78827283D-03  0.31936197D-05  0.58735598D-05
  0.96137593D-05  0.12955760D-04  0.12816006D-04  0.14264581D-05  0.27314875D-04
  0.73013906D-04 -0.10428561D-06 -0.19496362D-03 -0.20017805D-03 -0.15128329D-03
 -0.36285712D-04 -0.37256196D-04 -0.28156134D-04 -0.96482608D-05 -0.99063098D-05
 -0.74866308D-05 -0.72659117D-04  0.23672191D-03  0.19245854D-04  0.11584369D-04
 -0.39392022D-04  0.69780786D-04  0.15597919D-03 -0.12249927D-04 -0.20126271D-03
  0.16298280D-03  0.38279908D-04 -0.66260301D-03  0.17898014D-04 -0.19993867D-04
MO    3     MO 0.0        OCC NO =    2.0000000  ORB. ENERGY =  -10.271329
 -0.10868928D-03 -0.19605995D-03 -0.28904405D-03 -0.17321380D-02  0.34713498D-03
 -0.15091562D-02  0.30421652D-02  0.22440317D-03  0.43800725D+00  0.81539114D+00
  0.13413108D+01  0.18011552D+01  0.16958556D+01  0.13935974D+00  0.37089471D+00
  0.98553668D+00 -0.13285723D-02  0.61895424D-03  0.57918867D-03  0.44860401D-03
 -0.16498191D-02 -0.15438242D-02 -0.11957515D-02 -0.76455227D-04 -0.71543255D-04
 -0.55413017D-04  0.80114057D-02  0.87457770D-03  0.17796650D-02  0.12701814D-03
  0.29871125D-04  0.23803428D-03 -0.67665424D-04 -0.45958371D-05  0.17603363D-02
  0.90672249D-04 -0.18510086D-02 -0.21712925D-02 -0.23471041D-03  0.28288667D-03
 -0.20474211D-04 -0.37631645D-04 -0.61504906D-04 -0.82560095D-04 -0.80103950D-04
 -0.79828110D-05 -0.37306149D-04 -0.10183452D-03  0.11524132D-06  0.41532073D-03
  0.40850129D-03  0.31313247D-03  0.11624716D-02  0.11433842D-02  0.87644943D-03
 -0.97597183D-04 -0.95994667D-04 -0.73583727D-04  0.25254859D-03  0.48540635D-04
 -0.57003671D-03  0.95267502D-04 -0.35577030D-03 -0.14542872D-03 -0.24792341D-04
  0.48725502D-04 -0.35905204D-05 -0.47406554D-03  0.47765606D-03 -0.81435763D-03
 -0.59265129D-04  0.28451539D-03 -0.35771266D-04 -0.64526261D-04 -0.95128716D-04
  0.16794709D-03  0.32104514D-04  0.98209620D-04  0.84661919D-04 -0.33533622D-04
 -0.19677435D-04 -0.35495286D-04 -0.52329408D-04  0.21006765D-03 -0.22662901D-04
  0.36397207D-03  0.10756835D-03  0.69004431D-04 -0.18957193D-03 -0.34865205D-03
 -0.57066873D-03 -0.76904849D-03 -0.76075275D-03 -0.84673953D-04 -0.97774082D-04
 -0.26135458D-03  0.37329219D-06 -0.35997803D-02 -0.36960587D-02 -0.27932729D-02
  0.15737598D-03  0.16158511D-03  0.12211692D-03  0.21496543D-04  0.22071482D-04
  0.16680382D-04 -0.19201722D-04  0.29790222D-02 -0.65942580D-04 -0.11901495D-04
 -0.17446286D-02  0.82789205D-03 -0.10134365D-03 -0.12180833D-04 -0.28381057D-02
  0.11877403D-02  0.16503655D-02  0.32977242D-03  0.45270809D-04 -0.60988652D-04
MO    4     MO 0.0        OCC NO =    2.0000000  ORB. ENERGY =   -1.092485
  0.50684600D-02  0.91427787D-02  0.13478866D-01  0.38143375D-02 -0.31081744D-03
  0.47772367D-02 -0.14333280D-03 -0.44375906D-04 -0.55282716D-01 -0.10291391D+00
 -0.16929241D+00 -0.22733129D+00 -0.21404098D+00 -0.17589172D-01 -0.85432336D-01
 -0.22700971D+00  0.30602495D-03  0.25205800D+00  0.23586418D+00  0.18268593D+00
 -0.25534339D-01 -0.23893850D-01 -0.18506710D-01 -0.27007188D-02 -0.25272074D-02
 -0.19574198D-02  0.11451193D+00  0.61262617D-01 -0.88934513D-02 -0.86228244D-03
  0.86524309D-02 -0.14291643D-02  0.14262866D-03 -0.10459549D-03  0.20670503D-01
 -0.90344351D-02 -0.11636068D-01 -0.49173268D-02 -0.71663714D-03  0.40710591D-03
 -0.14213637D-01 -0.26124695D-01 -0.42698024D-01 -0.57314988D-01 -0.55609880D-01
 -0.55418386D-02 -0.23313741D-01 -0.63639470D-01  0.72017784D-04  0.39870713D-01
  0.39216048D-01  0.30060659D-01  0.14444957D-01  0.14207775D-01  0.10890824D-01
 -0.11251180D-01 -0.11066439D-01 -0.84828652D-02  0.32973714D-01  0.15019370D-01
  0.47832941D-02 -0.35895133D-02  0.62470139D-02  0.15668885D-02 -0.80832555D-03
 -0.29147930D-03  0.40523189D-02 -0.17005775D-02 -0.23517414D-02  0.11280321D-02
 -0.14085190D-02  0.37007448D-03  0.33414267D-02  0.60274571D-02  0.88860605D-02
  0.24626026D-02 -0.14548284D-03  0.68225692D-03  0.31164861D-02  0.15784881D-03
  0.18487482D-02  0.33348780D-02  0.49164893D-02  0.25881428D-02 -0.23244492D-03
  0.21989308D-02 -0.85950976D-03  0.13789091D-02 -0.12652183D+00 -0.23269319D+00
 -0.38086890D+00 -0.51326915D+00 -0.50773251D+00 -0.56512078D-01 -0.22517678D+00
 -0.60190780D+00  0.85970365D-03 -0.47090641D+00 -0.48350111D+00 -0.36540289D+00
  0.29669299D-01  0.30462823D-01  0.23022085D-01  0.51315536D-02  0.52688003D-02
  0.39818624D-02  0.31636324D+00 -0.15149756D+00  0.91265889D-02  0.16718048D-02
  0.79803349D-01 -0.10956520D-01  0.48970364D-03  0.12049837D-03  0.49935675D-01
 -0.28334535D-01 -0.21601140D-01 -0.96339504D-02 -0.17389913D-02 -0.28839965D-03
MO    5     MO 0.0        OCC NO =    2.0000000  ORB. ENERGY =   -0.907899
  0.61302693D-02  0.11058131D-01  0.16302600D-01  0.89651757D-02 -0.57098443D-03
  0.68958519D-03 -0.83119677D-02 -0.62747794D-03 -0.19947520D-01 -0.37134160D-01
 -0.61085344D-01 -0.82027365D-01 -0.77231856D-01 -0.63466558D-02 -0.32380704D-01
 -0.86041593D-01  0.11599008D-03 -0.18797080D+00 -0.17589436D+00 -0.13623698D+00
 -0.72790516D-01 -0.68113989D-01 -0.52756917D-01 -0.70219008D-03 -0.65707691D-03
 -0.50893146D-03  0.44577121D-01 -0.57328619D-01 -0.30427047D-01 -0.93352314D-03
  0.69153523D-02 -0.15250773D-02 -0.15481709D-03 -0.24634696D-03 -0.85196551D-03
  0.51393554D-02 -0.42873898D-02  0.21015535D-01  0.14402785D-02  0.40444524D-03
 -0.10622911D+00 -0.19524934D+00 -0.31911420D+00 -0.42835768D+00 -0.41561413D+00
 -0.41418295D-01 -0.17489991D+00 -0.47742391D+00  0.54027811D-03  0.10071656D+00
  0.99062828D-01  0.75935595D-01  0.16518295D-01  0.16247069D-01  0.12454024D-01
 -0.11531992D+00 -0.11342640D+00 -0.86945842D-01  0.24789181D+00  0.34610241D-01
  0.10786274D-01 -0.39480903D-01  0.67122724D-01  0.34897011D-02  0.22266902D-02
 -0.36919352D-02  0.50185263D-02  0.71542188D-02 -0.12172745D-01 -0.91391231D-02
  0.30207428D-02 -0.31879069D-02  0.25913537D-01  0.46744323D-01  0.68913454D-01
  0.26282959D-01  0.14468013D-03 -0.86513929D-02  0.17005364D-01  0.21722631D-02
  0.20377330D-01  0.36757797D-01  0.54190681D-01  0.23111932D-01  0.45279694D-03
  0.15223696D-01 -0.71948906D-02  0.71435853D-02  0.32606197D-01  0.59967832D-01
  0.98154495D-01  0.13227563D+00  0.13084877D+00  0.14563842D-01  0.58434763D-01
  0.15619878D+00 -0.22309840D-03  0.68961757D-01  0.70806184D-01  0.53511324D-01
 -0.42265377D-01 -0.43395791D-01 -0.32796094D-01 -0.19090875D-02 -0.19601473D-02
 -0.14813689D-02 -0.84007875D-01  0.21394331D-01 -0.15306318D-01 -0.10287403D-02
 -0.22865391D-01  0.62170408D-03 -0.15673402D-02  0.12868614D-03 -0.78675942D-02
  0.42548680D-02  0.36127262D-02  0.14784750D-01  0.10132179D-02 -0.11005244D-03
MO    6     MO 0.0        OCC NO =    2.0000000  ORB. ENERGY =   -0.630476
  0.37214438D-01  0.67129536D-01  0.98966631D-01  0.52706173D-01  0.27640638D-02
  0.85126123D-02 -0.21632596D-01 -0.21929890D-02 -0.53755386D-01 -0.10007064D+00
 -0.16461526D+00 -0.22105067D+00 -0.20812754D+00 -0.17103225D-01 -0.86991206D-01
 -0.23115192D+00  0.31160894D-03 -0.21679503D+00 -0.20286674D+00 -0.15712813D+00
  0.23769432D+00  0.22242332D+00  0.17227546D+00  0.17824181D-01  0.16679042D-01
  0.12918563D-01  0.12515087D+00 -0.61859208D-01  0.67373148D-01  0.48250128D-02
  0.32492299D-01 -0.92417196D-02  0.69397373D-02 -0.22271950D-03  0.46693806D-02
 -0.75993273D-03 -0.39094479D-02 -0.45760192D-03  0.79177475D-03  0.35498381D-03
  0.25225951D-01  0.46365353D-01  0.75779218D-01  0.10172098D+00  0.98694806D-01
  0.98354948D-02  0.41900573D-01  0.11437590D+00 -0.12943381D-03 -0.68658200D-01
 -0.67530853D-01 -0.51765083D-01  0.45551881D+00  0.44803933D+00  0.34343996D+00
  0.44295859D-01  0.43568534D-01  0.33397013D-01 -0.60772365D-01 -0.19349301D-01
  0.14939736D+00  0.15873608D-01 -0.22829645D-01 -0.13664971D-02  0.15655994D-01
  0.21969806D-02 -0.38786344D-02  0.32633145D-02  0.61531987D-03  0.34471387D-01
  0.52766886D-02 -0.17079355D-01 -0.27820853D-01 -0.50184849D-01 -0.73985695D-01
 -0.36772817D-01 -0.39325472D-02  0.76250082D-02 -0.91104545D-02 -0.28899409D-02
  0.46587739D-02  0.84037634D-02  0.12389362D-01  0.97386715D-02  0.16512544D-03
  0.68294974D-02  0.74810411D-02  0.41617985D-02  0.35725863D-01  0.65705379D-01
  0.10754563D+00  0.14493138D+00  0.14336800D+00  0.15957268D-01  0.64846889D-01
  0.17333869D+00 -0.24757929D-03 -0.14603289D+00 -0.14993863D+00 -0.11331517D+00
  0.21894914D+00  0.22480507D+00  0.16989501D+00  0.15459843D-01  0.15873326D-01
  0.11996165D-01 -0.97691825D-01 -0.40283088D-01  0.72332776D-01  0.42293804D-02
 -0.33357518D-01 -0.72319442D-02  0.90725054D-02  0.11886502D-02 -0.72735219D-03
  0.17619122D-02 -0.10345600D-02 -0.31296472D-01 -0.18088771D-02  0.50268911D-03
MO    7     MO 0.0        OCC NO =    2.0000000  ORB. ENERGY =   -0.552287
  0.81982958D-02  0.14788556D-01  0.21802230D-01  0.14122435D-01  0.52027071D-03
  0.37201035D-02 -0.50211275D-02  0.10329517D-02 -0.33904253D-01 -0.63115914D-01
 -0.10382509D+00 -0.13941966D+00 -0.13126887D+00 -0.10787237D-01 -0.55137365D-01
 -0.14651030D+00  0.19750613D-03 -0.37047605D-01 -0.34667431D-01 -0.26851265D-01
 -0.72012867D-01 -0.67386301D-01 -0.52193294D-01  0.40748951D-01  0.38130978D-01
  0.29533916D-01  0.83816358D-01 -0.11331759D-01 -0.30592669D-01  0.13922038D-01
  0.20420273D-01 -0.23660386D-02 -0.30649150D-02  0.13077839D-02 -0.11094575D-01
  0.12748445D-01 -0.16538707D-02 -0.14553762D-02 -0.22247314D-02 -0.22993458D-02
  0.18346596D-01  0.33721084D-01  0.55113510D-01  0.73980711D-01  0.71779801D-01
  0.71532625D-02  0.30659659D-01  0.83691607D-01 -0.94709842D-04  0.68049673D+00
  0.66932318D+00  0.51306282D+00 -0.30673546D+00 -0.30169896D+00 -0.23126424D+00
  0.18938661D+00  0.18627694D+00  0.14278868D+00 -0.45098761D-01  0.22225939D+00
 -0.92731962D-01  0.63564737D-01 -0.20413886D-01  0.26922687D-01 -0.11344397D-01
  0.80900481D-02  0.59538037D-02  0.42316320D-02 -0.10185436D-01  0.17754437D-01
 -0.33116825D-01  0.23967722D-01  0.23548385D-01  0.42477927D-01  0.62623661D-01
  0.36343500D-01  0.27340003D-02  0.40208641D-02  0.15096867D-01  0.76918897D-02
 -0.41648025D-01 -0.75127096D-01 -0.11075714D+00 -0.66209403D-01 -0.90997674D-02
 -0.14922921D-01  0.10013142D-01 -0.12914734D-01  0.39584612D-01  0.72802214D-01
  0.11916163D+00  0.16058541D+00  0.15885317D+00  0.17680811D-01  0.71333932D-01
  0.19067885D+00 -0.27234620D-03 -0.37392302D+00 -0.38392384D+00 -0.29014800D+00
 -0.10163109D+00 -0.10434928D+00 -0.78861303D-01  0.54625768D-01  0.56086770D-01
  0.42387220D-01 -0.10439080D+00 -0.11777858D+00 -0.32103186D-01  0.18689182D-01
 -0.47542855D-01 -0.17390619D-01 -0.45153493D-02  0.25559422D-02  0.18000865D-01
 -0.76945184D-02 -0.10306347D-01  0.88893729D-02 -0.83940404D-02  0.53935119D-03
MO    8     MO 0.0        OCC NO =    2.0000000  ORB. ENERGY =   -0.472556
  0.22613160D-01  0.40790915D-01  0.60136561D-01  0.33461644D-01  0.43771015D-02
  0.82688862D-02 -0.72651762D-02 -0.21404582D-02  0.67304482D-02  0.12529354D-01
  0.20610670D-01  0.27676670D-01  0.26058628D-01  0.21414110D-02  0.11591865D-01
  0.30801756D-01 -0.41522918D-04  0.10393549D+00  0.97258007D-01  0.75330086D-01
  0.44862655D+00  0.41980392D+00  0.32515436D+00 -0.88512911D-02 -0.82826277D-02
 -0.64152153D-02 -0.19183894D-01  0.38188195D-01  0.14294002D+00 -0.32877136D-02
 -0.88856957D-02  0.34574103D-02  0.18966272D-01  0.19136863D-03 -0.57923043D-02
  0.29402835D-02  0.28520208D-02  0.12076123D-01 -0.50068043D-03  0.15416437D-02
 -0.86189553D-02 -0.15841659D-01 -0.25891499D-01 -0.34755027D-01 -0.33721073D-01
 -0.33604953D-02 -0.14135377D-01 -0.38585308D-01  0.43665172D-04 -0.16471347D+00
 -0.16200893D+00 -0.12418628D+00 -0.60903315D+00 -0.59903302D+00 -0.45918261D+00
 -0.63919340D-01 -0.62869804D-01 -0.48192203D-01  0.18787654D-01 -0.62074028D-01
 -0.20304209D+00 -0.21537005D-01  0.12355595D-01 -0.85093243D-02 -0.28845357D-01
 -0.38933566D-02 -0.11638411D-01  0.86798838D-02  0.29585270D-02 -0.47196872D-01
  0.16112355D-02  0.22287578D-01  0.26408823D-01  0.47637749D-01  0.70230599D-01
  0.37489014D-01  0.74097089D-02 -0.14672992D-01 -0.16359857D-02  0.13816565D-02
 -0.25469143D-02 -0.45942701D-02 -0.67731651D-02 -0.56756404D-02  0.63456261D-03
 -0.78313333D-02 -0.70430288D-02 -0.38214056D-02  0.30348208D-02  0.55815040D-02
  0.91357265D-02  0.12311550D-01  0.12178745D-01  0.13555291D-02  0.53202742D-02
  0.14221335D-01 -0.20312303D-04 -0.15140860D-03 -0.15545812D-03 -0.11748649D-03
  0.79095521D+00  0.81210982D+00  0.61374684D+00 -0.16074687D-01 -0.16504615D-01
 -0.12473258D-01 -0.70563046D-02  0.12794291D-03  0.26172392D+00 -0.49011084D-02
 -0.49621305D-02  0.35221403D-03  0.38578495D-01 -0.12174198D-02 -0.25545353D-02
  0.47672424D-02 -0.22127070D-02 -0.85716537D-01  0.18087707D-02  0.11030827D-02
MO    9     MO 0.0        OCC NO =    2.0000000  ORB. ENERGY =   -0.456991
  0.13883283D-01  0.25043462D-01  0.36920663D-01  0.25985346D-01  0.66611618D-02
 -0.33404286D-02 -0.11782582D-01  0.17840454D-02  0.16467310D-01  0.30655426D-01
  0.50427888D-01  0.67716190D-01  0.63757346D-01  0.52393655D-02  0.26157911D-01
  0.69506467D-01 -0.93699574D-04 -0.39251062D+00 -0.36729323D+00 -0.28448281D+00
  0.84108622D-01  0.78704947D-01  0.60960024D-01  0.11003651D+00  0.10296706D+00
  0.79751969D-01 -0.44677865D-01 -0.11593372D+00  0.22587752D-01  0.36761595D-01
  0.81602816D-03  0.66495383D-03  0.11337100D-02  0.48426619D-02 -0.10936400D-01
  0.90625434D-02  0.18738567D-02  0.92979479D-02  0.58775079D-02 -0.39647168D-02
 -0.34486827D-03 -0.63386863D-03 -0.10359906D-02 -0.13906449D-02 -0.13492735D-02
 -0.13446272D-03 -0.53777964D-03 -0.14679759D-02  0.16612391D-05  0.25775885D+00
  0.25352653D+00  0.19433816D+00  0.10654037D-01  0.10479101D-01  0.80326473D-02
  0.16061774D+00  0.15798045D+00  0.12109829D+00  0.90359524D-03  0.84964582D-01
  0.54125094D-02  0.53560612D-01  0.13901429D-02  0.94446237D-02  0.68596395D-02
  0.89626266D-02 -0.31085876D-02  0.91476607D-02 -0.60390732D-02  0.13446478D-01
 -0.59921935D-02  0.75854889D-02  0.48208060D-02  0.86960463D-02  0.12820264D-01
  0.11247113D-01  0.27567346D-02  0.23572356D-03  0.36572554D-02  0.53548803D-02
 -0.14759221D-01 -0.26623528D-01 -0.39250098D-01 -0.25869082D-01 -0.51461854D-02
 -0.18360075D-02  0.76131238D-02 -0.28578414D-02 -0.54508493D-01 -0.10024954D+00
 -0.16408702D+00 -0.22112807D+00 -0.21874275D+00 -0.24346693D-01 -0.98462855D-01
 -0.26319570D+00  0.37592186D-03  0.13259933D+01  0.13614579D+01  0.10289132D+01
 -0.25430562D-01 -0.26110718D-01 -0.19733010D-01  0.20878932D+00  0.21437353D+00
  0.16201143D+00  0.14664245D+00  0.40822978D+00 -0.58338977D-02  0.69661013D-01
  0.75690854D-01  0.64995381D-01 -0.13029208D-02  0.10853200D-01 -0.62006287D-01
  0.29661557D-01  0.32344730D-01  0.34927717D-02 -0.21573907D-01  0.11536821D-02
MO   10     MO 0.0        OCC NO =    2.0000000  ORB. ENERGY =   -0.428460
 -0.38680998D-02 -0.69775001D-02 -0.10286674D-01 -0.63226599D-02 -0.18424343D-02
  0.13322793D-02  0.10689463D-02  0.11556959D-01  0.17044843D-02  0.31730558D-02
  0.52196469D-02  0.70091098D-02  0.65993411D-02  0.54231179D-03  0.29593550D-02
  0.78635605D-02 -0.10600629D-04  0.11815274D+00  0.11056185D+00  0.85634429D-01
 -0.81622186D-02 -0.76378256D-02 -0.59157912D-02  0.42969925D+00  0.40209263D+00
  0.31143628D+00 -0.22958335D-02  0.34826997D-01 -0.26032792D-02  0.14333323D+00
 -0.65840157D-02  0.11813018D-02  0.17569127D-03  0.23655293D-01  0.51670691D-02
 -0.40364423D-02 -0.11306267D-02  0.42550824D-03  0.39475115D-01 -0.11553725D-01
 -0.12753402D-01 -0.23440781D-01 -0.38311453D-01 -0.51426747D-01 -0.49896812D-01
 -0.49724991D-02 -0.21516401D-01 -0.58733275D-01  0.66465675D-04 -0.17097613D+00
 -0.16816876D+00 -0.12890804D+00  0.95988502D-02  0.94412400D-02  0.72370857D-02
  0.26060720D+00  0.25632811D+00  0.19648568D+00  0.33196185D-01 -0.55009371D-01
  0.38218752D-02  0.88110489D-01  0.13999116D-01 -0.91412941D-02 -0.20971150D-02
  0.16677584D-01  0.30963557D-02  0.65905292D-03 -0.37554087D-02 -0.32360452D-02
  0.27729092D-01  0.14527879D-01 -0.47955159D-02 -0.86504266D-02 -0.12753009D-01
 -0.67616126D-02 -0.16657444D-02 -0.19144858D-02 -0.36772397D-02  0.65378821D-02
  0.36849098D-02  0.66470515D-02  0.97995059D-02  0.87368083D-02  0.18939494D-02
 -0.26027674D-02 -0.27237487D-02  0.74370680D-02  0.80705313D-02  0.14842953D-01
  0.24294735D-01  0.32740237D-01  0.32387067D-01  0.36047730D-02  0.14575001D-01
  0.38959640D-01 -0.55645973D-04 -0.27671202D+00 -0.28411287D+00 -0.21471650D+00
  0.46221798D-01  0.47458030D-01  0.35866105D-01  0.11517113D+01  0.11825146D+01
  0.89367790D+00 -0.21858908D-01 -0.84497221D-01  0.14154562D-01  0.38140637D+00
 -0.11595534D-01 -0.14227734D-01  0.24937533D-02  0.61587393D-01  0.12437424D-01
 -0.65884006D-02 -0.58490237D-02 -0.35084772D-02 -0.10985180D+00  0.60006310D-02
MO   11     MO 0.0        OCC NO =    2.0000000  ORB. ENERGY =   -0.299478
 -0.98453221D-02 -0.17759556D-01 -0.26182267D-01 -0.21981477D-01 -0.43652399D-02
 -0.38540060D-03  0.36882106D-03  0.11917075D-02  0.44652002D-02  0.83123847D-02
  0.13673795D-01  0.18361611D-01  0.17288149D-01  0.14206823D-02  0.72375152D-02
  0.19231433D-01 -0.25925315D-04  0.49339705D-01  0.46169807D-01  0.35760300D-01
 -0.28909729D-01 -0.27052383D-01 -0.20953116D-01 -0.14332361D-01 -0.13411559D-01
 -0.10387771D-01 -0.92811852D-02  0.10796830D-01 -0.12650963D-01 -0.30488563D-02
 -0.13799514D-02  0.16981860D-03 -0.10801325D-02  0.19624103D-02  0.69127902D-02
 -0.63445578D-02 -0.56823243D-03  0.28935386D-01 -0.50976729D-01 -0.17532480D-01
 -0.31932681D-01 -0.58692337D-01 -0.95926358D-01 -0.12876516D+00 -0.12493443D+00
 -0.12450421D-01 -0.54010002D-01 -0.14743099D+00  0.16684069D-03 -0.11989621D+00
 -0.11792756D+00 -0.90396158D-01  0.11712554D+00  0.11520238D+00  0.88307201D-01
  0.89556312D+00  0.88085825D+00  0.67521286D+00  0.83420784D-01 -0.34984034D-01
  0.40254532D-01  0.28516156D+00  0.47844812D-01 -0.14983045D-01  0.62875665D-02
  0.71347241D-01  0.68045915D-02  0.58084301D-02 -0.12613022D-01  0.62367844D-02
  0.17976551D-01  0.44329286D-02 -0.11910223D-01 -0.21484343D-01 -0.31673584D-01
 -0.13218291D-01 -0.59189499D-02  0.33989339D-03 -0.40287266D-02  0.19738108D-01
 -0.10761040D-01 -0.19411381D-01 -0.28617492D-01 -0.19519410D-01 -0.65635565D-02
 -0.10880748D-01  0.43365871D-02  0.16232360D-01 -0.15485469D-02 -0.28480168D-02
 -0.46615935D-02 -0.62820885D-02 -0.62143235D-02 -0.69167194D-03 -0.28880583D-02
 -0.77199115D-02  0.11026333D-04 -0.75111850D-01 -0.77120765D-01 -0.58283528D-01
  0.43629856D+00  0.44796764D+00  0.33854870D+00 -0.72208990D+00 -0.74140266D+00
 -0.56031036D+00  0.47894654D-02 -0.22841830D-01  0.13865206D+00 -0.23024944D+00
  0.85029613D-03 -0.39118600D-02  0.29526401D-01 -0.49974635D-01  0.42578206D-02
 -0.23807011D-02 -0.18771195D-02 -0.18549895D-01  0.34822940D-01 -0.32472685D-02
MO   12     MO 0.0        OCC NO =    2.0000000  ORB. ENERGY =   -0.274430
 -0.24958946D-01 -0.45022377D-01 -0.66374851D-01 -0.60266449D-01 -0.19597356D-01
 -0.29484854D-02 -0.44301725D-03  0.45493916D-03  0.22478894D-02  0.41846548D-02
  0.68837178D-02  0.92436777D-02  0.87032710D-02  0.71520572D-03  0.35656015D-02
  0.94744708D-02 -0.12772249D-04  0.15441718D-01  0.14449643D-01  0.11191807D-01
 -0.14288263D+00 -0.13370293D+00 -0.10355809D+00 -0.12661664D-01 -0.11848198D-01
 -0.91768872D-02 -0.34731845D-02  0.19812389D-02 -0.50649145D-01 -0.45392828D-02
 -0.18831226D-02  0.65026851D-02  0.46037620D-02 -0.20214673D-02  0.12018271D-01
 -0.91328502D-02 -0.28854209D-02  0.86457927D-01  0.15712520D-01  0.25202016D-02
 -0.69273520D-02 -0.12732488D-01 -0.20809892D-01 -0.27933815D-01 -0.27102790D-01
 -0.27009461D-02 -0.11384565D-01 -0.31076424D-01  0.35167722D-04  0.40278225D+00
  0.39616868D+00  0.30367904D+00  0.36326036D+00  0.35729573D+00  0.27388138D+00
 -0.26984550D+00 -0.26541472D+00 -0.20345093D+00  0.14494557D-01  0.13008030D+00
  0.11401727D+00 -0.89069251D-01  0.36843209D-01  0.36350578D-01  0.24223887D-01
 -0.24228562D-01  0.36494778D-02 -0.79305262D-02  0.42810484D-02 -0.37602881D-03
 -0.15607560D-01 -0.12473102D-01 -0.36713625D-02 -0.66226141D-02 -0.97634788D-02
 -0.17360794D-01 -0.11339552D-01  0.99693969D-02  0.37020301D-02 -0.83662087D-02
 -0.77824823D-03 -0.14038488D-02 -0.20696431D-02 -0.47690676D-02 -0.25251198D-02
  0.79711606D-02  0.59417836D-02 -0.71076305D-02 -0.24207707D-02 -0.44521712D-02
 -0.72872505D-02 -0.98204943D-02 -0.97145605D-02 -0.10812583D-02 -0.46548649D-02
 -0.12442666D-01  0.17771833D-04  0.47804899D-01  0.49083472D-01  0.37094522D-01
  0.13533933D+01  0.13895907D+01  0.10501743D+01  0.22539348D+00  0.23142178D+00
  0.17489554D+00  0.95879075D-02  0.16608633D-01  0.43341399D+00  0.71127691D-01
 -0.44289677D-02  0.59553033D-02  0.89733891D-01  0.16436251D-01 -0.66915629D-03
 -0.14299383D-03  0.81215011D-03 -0.46267479D-01 -0.87477250D-02  0.68287969D-03
END DATA
 TOTAL ENERGY =   -169.898540204898 THE VIRIAL(-V/T)=   2.00087188
