 Formamide
GAUSSIAN             12 MOL ORBITALS    120 PRIMITIVES        6 NUCLEI
  H    1    (CENTRE  1)  -0.87278233  2.69428921  0.00000000  CHARGE =  1.0
  C    2    (CENTRE  2)   0.00000000  0.79115302  0.00000000  CHARGE =  6.0
  N    3    (CENTRE  3)  -1.76946457 -1.07580723  0.00000000  CHARGE =  7.0
  H    4    (CENTRE  4)  -1.19933220 -2.89432062  0.00000000  CHARGE =  1.0
  H    5    (CENTRE  5)  -3.62981289 -0.68496552  0.00000000  CHARGE =  1.0
  O    6    (CENTRE  6)   2.26102242  0.45859118  0.00000000  CHARGE =  8.0
CENTRE ASSIGNMENTS    1  1  1  1  1  1  1  1  2  2  2  2  2  2  2  2  2  2  2  2
CENTRE ASSIGNMENTS    2  2  2  2  2  2  2  2  2  2  2  2  2  2  2  2  2  2  2  2
CENTRE ASSIGNMENTS    3  3  3  3  3  3  3  3  3  3  3  3  3  3  3  3  3  3  3  3
CENTRE ASSIGNMENTS    3  3  3  3  3  3  3  3  3  3  3  3  4  4  4  4  4  4  4  4
CENTRE ASSIGNMENTS    5  5  5  5  5  5  5  5  6  6  6  6  6  6  6  6  6  6  6  6
CENTRE ASSIGNMENTS    6  6  6  6  6  6  6  6  6  6  6  6  6  6  6  6  6  6  6  6
TYPE ASSIGNMENTS      1  1  1  1  1  2  3  4  1  1  1  1  1  1  1  1  1  2  2  2
TYPE ASSIGNMENTS      3  3  3  4  4  4  1  2  3  4  1  2  3  4  5  6  7  8  9 10
TYPE ASSIGNMENTS      1  1  1  1  1  1  1  1  1  2  2  2  3  3  3  4  4  4  1  2
TYPE ASSIGNMENTS      3  4  1  2  3  4  5  6  7  8  9 10  1  1  1  1  1  2  3  4
TYPE ASSIGNMENTS      1  1  1  1  1  2  3  4  1  1  1  1  1  1  1  1  1  2  2  2
TYPE ASSIGNMENTS      3  3  3  4  4  4  1  2  3  4  1  2  3  4  5  6  7  8  9 10
EXPONENTS  0.3386500D+02 0.5094790D+01 0.1158790D+01 0.3258400D+00 0.1027410D+00
EXPONENTS  0.7500000D+00 0.7500000D+00 0.7500000D+00 0.4563240D+04 0.6820240D+03
EXPONENTS  0.1549730D+03 0.4445530D+02 0.1302900D+02 0.1827730D+01 0.2096420D+02
EXPONENTS  0.4803310D+01 0.1459330D+01 0.2096420D+02 0.4803310D+01 0.1459330D+01
EXPONENTS  0.2096420D+02 0.4803310D+01 0.1459330D+01 0.2096420D+02 0.4803310D+01
EXPONENTS  0.1459330D+01 0.4834560D+00 0.4834560D+00 0.4834560D+00 0.4834560D+00
EXPONENTS  0.1455850D+00 0.1455850D+00 0.1455850D+00 0.1455850D+00 0.6260000D+00
EXPONENTS  0.6260000D+00 0.6260000D+00 0.6260000D+00 0.6260000D+00 0.6260000D+00
EXPONENTS  0.6293480D+04 0.9490440D+03 0.2187760D+03 0.6369160D+02 0.1882820D+02
EXPONENTS  0.2720230D+01 0.3063310D+02 0.7026140D+01 0.2112050D+01 0.3063310D+02
EXPONENTS  0.7026140D+01 0.2112050D+01 0.3063310D+02 0.7026140D+01 0.2112050D+01
EXPONENTS  0.3063310D+02 0.7026140D+01 0.2112050D+01 0.6840090D+00 0.6840090D+00
EXPONENTS  0.6840090D+00 0.6840090D+00 0.2008780D+00 0.2008780D+00 0.2008780D+00
EXPONENTS  0.2008780D+00 0.9130000D+00 0.9130000D+00 0.9130000D+00 0.9130000D+00
EXPONENTS  0.9130000D+00 0.9130000D+00 0.3386500D+02 0.5094790D+01 0.1158790D+01
EXPONENTS  0.3258400D+00 0.1027410D+00 0.7500000D+00 0.7500000D+00 0.7500000D+00
EXPONENTS  0.3386500D+02 0.5094790D+01 0.1158790D+01 0.3258400D+00 0.1027410D+00
EXPONENTS  0.7500000D+00 0.7500000D+00 0.7500000D+00 0.8588500D+04 0.1297230D+04
EXPONENTS  0.2992960D+03 0.8737710D+02 0.2567890D+02 0.3740040D+01 0.4211750D+02
EXPONENTS  0.9628370D+01 0.2853320D+01 0.4211750D+02 0.9628370D+01 0.2853320D+01
EXPONENTS  0.4211750D+02 0.9628370D+01 0.2853320D+01 0.4211750D+02 0.9628370D+01
EXPONENTS  0.2853320D+01 0.9056610D+00 0.9056610D+00 0.9056610D+00 0.9056610D+00
EXPONENTS  0.2556110D+00 0.2556110D+00 0.2556110D+00 0.2556110D+00 0.1292000D+01
EXPONENTS  0.1292000D+01 0.1292000D+01 0.1292000D+01 0.1292000D+01 0.1292000D+01
MO    1     MO 0.0        OCC NO =    2.0000000  ORB. ENERGY =  -19.087506
 -0.73785131D-04 -0.13309785D-03 -0.19622131D-03  0.17973786D-03  0.94506598D-04
 -0.51784750D-03  0.76525059D-04  0.00000000D+00 -0.23149951D-04 -0.43095783D-04
 -0.70892158D-04 -0.95196270D-04 -0.89630877D-04 -0.73655658D-05  0.97325056D-04
  0.25861090D-03 -0.34862556D-06  0.98602087D-03  0.92267260D-03  0.71464559D-03
 -0.92886565D-04 -0.86918939D-04 -0.67322078D-04  0.00000000D+00  0.00000000D+00
  0.00000000D+00  0.12641497D-03 -0.73818515D-03  0.92958905D-04  0.00000000D+00
  0.51515920D-03  0.57930397D-03 -0.26124608D-03  0.00000000D+00 -0.88198306D-03
  0.71194947D-03  0.17003359D-03  0.54669699D-03  0.00000000D+00  0.00000000D+00
 -0.41123207D-05 -0.75584545D-05 -0.12353487D-04 -0.16582499D-04 -0.16089173D-04
 -0.16033770D-05  0.46536081D-04  0.12702944D-03 -0.14375322D-06  0.41955170D-03
  0.41266279D-03  0.31632243D-03  0.20873295D-03  0.20530562D-03  0.15737492D-03
  0.00000000D+00  0.00000000D+00  0.00000000D+00 -0.96512135D-04 -0.44666028D-03
 -0.22375909D-03  0.00000000D+00 -0.43130410D-04 -0.36692268D-03  0.36047131D-03
  0.00000000D+00 -0.87322691D-04  0.52191288D-04  0.35131403D-04 -0.53262913D-03
  0.00000000D+00  0.00000000D+00 -0.44275847D-04 -0.79867311D-04 -0.11774547D-03
  0.45977431D-03 -0.28192207D-04 -0.53116646D-05  0.16539569D-03  0.00000000D+00
  0.63920958D-05  0.11530429D-04  0.16998891D-04 -0.39203453D-03  0.38848338D-04
 -0.21899615D-03 -0.16551725D-04  0.00000000D+00  0.66431040D+00  0.12217694D+01
  0.19997748D+01  0.26949502D+01  0.26658797D+01  0.29672002D+00  0.63040522D+00
  0.16851019D+01 -0.24068275D-02 -0.65000336D-02 -0.66738812D-02 -0.50437434D-02
  0.59485832D-03  0.61076819D-03  0.46158418D-03  0.00000000D+00  0.00000000D+00
  0.00000000D+00  0.89698623D-02 -0.12652924D-02  0.20150271D-03  0.00000000D+00
 -0.23206901D-02  0.50013687D-03 -0.27164846D-04  0.00000000D+00  0.97301662D-03
 -0.48103039D-03 -0.49198623D-03 -0.44807384D-03  0.00000000D+00  0.00000000D+00
MO    2     MO 0.0        OCC NO =    2.0000000  ORB. ENERGY =  -14.340231
 -0.58851978D-04 -0.10616057D-03 -0.15650867D-03 -0.16095899D-03  0.54316203D-04
 -0.34194341D-04  0.42538854D-03  0.00000000D+00 -0.20070843D-05 -0.37363737D-05
 -0.61462996D-05 -0.82534489D-05 -0.77709332D-05 -0.63858932D-06  0.76289263D-04
  0.20271486D-03 -0.27327379D-06 -0.10034461D-02 -0.93897834D-03 -0.72727502D-03
 -0.10574024D-02 -0.98946808D-03 -0.76638127D-03  0.00000000D+00  0.00000000D+00
  0.00000000D+00  0.24645735D-04  0.72328375D-03  0.78146088D-03  0.00000000D+00
  0.59251994D-03 -0.17948798D-03 -0.28288185D-03  0.00000000D+00  0.37746144D-04
 -0.14909638D-03  0.11135024D-03 -0.16684509D-02  0.00000000D+00  0.00000000D+00
  0.55285345D+00  0.10161459D+01  0.16607819D+01  0.22293232D+01  0.21630013D+01
  0.21555529D+00  0.48361735D+00  0.13201293D+01 -0.14939280D-02 -0.59607792D-03
 -0.58629050D-03 -0.44941497D-03 -0.32234337D-03 -0.31705059D-03 -0.24303188D-03
  0.00000000D+00  0.00000000D+00  0.00000000D+00  0.84309572D-02  0.59383380D-04
 -0.11107925D-04  0.00000000D+00 -0.13050856D-02 -0.35252061D-03 -0.32728338D-03
  0.00000000D+00  0.85324858D-03  0.70723980D-03 -0.15604884D-02 -0.22183376D-03
  0.00000000D+00  0.00000000D+00 -0.14702530D-04 -0.26521267D-04 -0.39099338D-04
 -0.60666617D-03  0.74742411D-04  0.71554237D-03 -0.16559525D-02  0.00000000D+00
 -0.19985038D-04 -0.36050157D-04 -0.53147434D-04 -0.63794700D-03  0.64298124D-04
 -0.17394269D-02  0.57968278D-03  0.00000000D+00  0.50947742D-05  0.93700764D-05
  0.15336808D-04  0.20668294D-04  0.20445345D-04  0.22756252D-05  0.56806235D-04
  0.15184565D-03 -0.21688083D-06 -0.46183716D-03 -0.47418929D-03 -0.35836555D-03
 -0.22341125D-04 -0.22938653D-04 -0.17335741D-04  0.00000000D+00  0.00000000D+00
  0.00000000D+00 -0.14448661D-03  0.57372147D-03 -0.45943293D-05  0.00000000D+00
 -0.18293632D-03  0.94236861D-04  0.12436850D-03  0.00000000D+00 -0.49607593D-03
  0.43136614D-03  0.64709788D-04 -0.44090701D-03  0.00000000D+00  0.00000000D+00
MO    3     MO 0.0        OCC NO =    2.0000000  ORB. ENERGY =  -10.272759
  0.27469611D-04  0.49551259D-04  0.73051617D-04 -0.95174682D-03  0.31007863D-03
 -0.85411331D-03  0.20295170D-02  0.00000000D+00  0.43810677D+00  0.81557642D+00
  0.13416155D+01  0.18015645D+01  0.16962409D+01  0.13939141D+00  0.37102824D+00
  0.98589150D+00 -0.13290506D-02 -0.49835621D-03 -0.46633862D-03 -0.36119729D-03
 -0.13682460D-02 -0.12803411D-02 -0.99167370D-03  0.00000000D+00  0.00000000D+00
  0.00000000D+00  0.70481069D-02  0.60318740D-03  0.44270790D-03  0.00000000D+00
  0.10341561D-03  0.19654659D-03 -0.24380027D-03  0.00000000D+00  0.13438582D-02
  0.28699614D-03 -0.16308543D-02 -0.62030246D-03  0.00000000D+00  0.00000000D+00
 -0.52396017D-04 -0.96303993D-04 -0.15739859D-03 -0.21128140D-03 -0.20499583D-03
 -0.20428992D-04 -0.17535507D-04 -0.47866637D-04  0.54168414D-07  0.12152025D-02
  0.11952492D-02  0.91620603D-03  0.16245360D-02  0.15978616D-02  0.12248244D-02
  0.00000000D+00  0.00000000D+00  0.00000000D+00  0.23698354D-03 -0.71928544D-03
 -0.10039865D-02  0.00000000D+00 -0.60428512D-03 -0.35600778D-03 -0.10601481D-03
  0.00000000D+00 -0.10327337D-03 -0.71439257D-03  0.81766594D-03 -0.17955055D-02
  0.00000000D+00  0.00000000D+00 -0.19500577D-04 -0.35176258D-04 -0.51859076D-04
  0.12741612D-03  0.96139360D-05  0.22053964D-03  0.75336109D-04  0.00000000D+00
 -0.19511157D-04 -0.35195344D-04 -0.51887214D-04 -0.11073702D-03 -0.12413630D-04
 -0.45892258D-04  0.28818698D-03  0.00000000D+00 -0.11339966D-03 -0.20855948D-03
 -0.34136719D-03 -0.46003558D-03 -0.45507317D-03 -0.50650943D-04 -0.79088234D-04
 -0.21140645D-03  0.30195139D-06 -0.30339911D-02 -0.31151372D-02 -0.23542451D-02
  0.48668163D-03  0.49969824D-03  0.37764378D-03  0.00000000D+00  0.00000000D+00
  0.00000000D+00  0.26377588D-03  0.22011805D-02 -0.35428891D-03  0.00000000D+00
 -0.14590540D-02  0.72177137D-03 -0.69364913D-04  0.00000000D+00 -0.26133544D-02
  0.10825589D-02  0.15307954D-02  0.11934931D-02  0.00000000D+00  0.00000000D+00
MO    4     MO 0.0        OCC NO =    2.0000000  ORB. ENERGY =   -1.041321
  0.50771147D-02  0.91583906D-02  0.13501882D-01  0.48401029D-02 -0.84309749D-03
  0.45345978D-02 -0.33020511D-02  0.00000000D+00 -0.56208657D-01 -0.10463763D+00
 -0.17212792D+00 -0.23113891D+00 -0.21762600D+00 -0.17883777D-01 -0.87957270D-01
 -0.23371894D+00  0.31506945D-03  0.18868852D+00  0.17656596D+00  0.13675716D+00
 -0.64689382D-01 -0.60533323D-01 -0.46885399D-01  0.00000000D+00  0.00000000D+00
  0.00000000D+00  0.12097947D+00  0.50646584D-01 -0.20896170D-01  0.00000000D+00
  0.10333041D-01 -0.14579086D-02  0.11152124D-02  0.00000000D+00  0.19727545D-01
 -0.75783194D-02 -0.12149226D-01 -0.43262609D-02  0.00000000D+00  0.00000000D+00
 -0.32327447D-01 -0.59417918D-01 -0.97112242D-01 -0.13035701D+00 -0.12647892D+00
 -0.12604339D-01 -0.53053475D-01 -0.14481996D+00  0.16388591D-03  0.63848642D-01
  0.62800267D-01  0.48138901D-01  0.39149810D-01  0.38506982D-01  0.29517132D-01
  0.00000000D+00  0.00000000D+00  0.00000000D+00  0.75132477D-01  0.23355112D-01
  0.14177690D-01  0.00000000D+00  0.16965810D-01  0.33213053D-02 -0.47581021D-03
  0.00000000D+00  0.58114651D-02 -0.20456254D-03 -0.56069026D-02  0.85138507D-02
  0.00000000D+00  0.00000000D+00  0.52286969D-02  0.94318232D-02  0.13904993D-01
  0.38456424D-02 -0.14872463D-04 -0.70037265D-03  0.51461262D-02  0.00000000D+00
  0.40426776D-02  0.72924136D-02  0.10750940D-01  0.63093504D-02 -0.24635346D-03
  0.51567285D-02 -0.99891038D-04  0.00000000D+00 -0.11898466D+00 -0.21883117D+00
 -0.35817975D+00 -0.48269264D+00 -0.47748583D+00 -0.53145535D-01 -0.21167869D+00
 -0.56582677D+00  0.80816919D-03 -0.41161610D+00 -0.42262504D+00 -0.31939619D+00
  0.45728919D-01  0.46951969D-01  0.35483653D-01  0.00000000D+00  0.00000000D+00
  0.00000000D+00  0.29891960D+00 -0.13411475D+00  0.14531257D-01  0.00000000D+00
  0.78410682D-01 -0.10625458D-01  0.60019966D-03  0.00000000D+00  0.40404799D-01
 -0.22762396D-01 -0.17642403D-01 -0.14276339D-01  0.00000000D+00  0.00000000D+00
MO    5     MO 0.0        OCC NO =    2.0000000  ORB. ENERGY =   -0.914531
  0.33450726D-02  0.60340338D-02  0.88957563D-02  0.54610938D-02 -0.34269294D-03
 -0.17391581D-02 -0.56906155D-02  0.00000000D+00 -0.15469916D-01 -0.28798684D-01
 -0.47373564D-01 -0.63614746D-01 -0.59895681D-01 -0.49220269D-02 -0.24916104D-01
 -0.66206753D-01  0.89251329D-04 -0.23265871D+00 -0.21771123D+00 -0.16862576D+00
 -0.93931999D-01 -0.87897208D-01 -0.68079785D-01  0.00000000D+00  0.00000000D+00
  0.00000000D+00  0.35188655D-01 -0.69780722D-01 -0.32314572D-01  0.00000000D+00
  0.33658341D-02 -0.11525537D-02 -0.37526418D-04  0.00000000D+00 -0.50560707D-02
  0.79629077D-02 -0.29068370D-02  0.24295740D-01  0.00000000D+00  0.00000000D+00
 -0.10531799D+00 -0.19357469D+00 -0.31637716D+00 -0.42468367D+00 -0.41204942D+00
 -0.41063052D-01 -0.17349837D+00 -0.47359813D+00  0.53594865D-03  0.14258947D-01
  0.14024820D-01  0.10750582D-01  0.46466128D-01  0.45703169D-01  0.35033295D-01
  0.00000000D+00  0.00000000D+00  0.00000000D+00  0.24630765D+00  0.46612853D-02
  0.16470317D-01  0.00000000D+00  0.66115509D-01  0.64056548D-04  0.33037560D-02
  0.00000000D+00  0.65293419D-02  0.10260096D-01 -0.16789438D-01  0.52619682D-02
  0.00000000D+00  0.00000000D+00  0.19256266D-01  0.34735556D-01  0.51209366D-01
  0.23025144D-01  0.16143628D-03 -0.54778783D-02  0.16984843D-01  0.00000000D+00
  0.20924816D-01  0.37745383D-01  0.55646644D-01  0.22471870D-01  0.45413631D-03
  0.17651214D-01 -0.34137201D-02  0.00000000D+00  0.53551087D-01  0.98488719D-01
  0.16120494D+00  0.21724410D+00  0.21490068D+00  0.23919059D-01  0.95696143D-01
  0.25580015D+00 -0.36535882D-03  0.12139716D+00  0.12464400D+00  0.94198914D-01
 -0.57032549D-01 -0.58557921D-01 -0.44254777D-01  0.00000000D+00  0.00000000D+00
  0.00000000D+00 -0.13689089D+00  0.38861227D-01 -0.19407093D-01  0.00000000D+00
 -0.38039150D-01  0.24268180D-02 -0.18960152D-02  0.00000000D+00 -0.11452919D-01
  0.59751902D-02  0.54777287D-02  0.18388250D-01  0.00000000D+00  0.00000000D+00
MO    6     MO 0.0        OCC NO =    2.0000000  ORB. ENERGY =   -0.630874
  0.25485591D-01  0.45972369D-01  0.67775390D-01  0.38705379D-01  0.21322296D-02
  0.40551643D-02 -0.16830062D-01  0.00000000D+00 -0.57885706D-01 -0.10775961D+00
 -0.17726355D+00 -0.23803520D+00 -0.22411912D+00 -0.18417360D-01 -0.93535816D-01
 -0.24854218D+00  0.33505222D-03 -0.24038774D+00 -0.22494370D+00 -0.17422759D+00
  0.63285079D-01  0.59219242D-01  0.45867592D-01  0.00000000D+00  0.00000000D+00
  0.00000000D+00  0.13807919D+00 -0.71279209D-01  0.18321866D-01  0.00000000D+00
  0.30382568D-01 -0.74652722D-02  0.32812274D-02  0.00000000D+00  0.18401877D-02
  0.32917074D-02 -0.51318951D-02  0.63350835D-02  0.00000000D+00  0.00000000D+00
  0.25325465D-01  0.46548260D-01  0.76078161D-01  0.10212226D+00  0.99084149D-01
  0.98742950D-02  0.42134420D-01  0.11501424D+00 -0.13015618D-03  0.26771418D+00
  0.26331840D+00  0.20184402D+00  0.55892539D+00  0.54974800D+00  0.42140369D+00
  0.00000000D+00  0.00000000D+00  0.00000000D+00 -0.61123255D-01  0.87558767D-01
  0.18393276D+00  0.00000000D+00 -0.23382070D-01  0.10457507D-01  0.22811423D-01
  0.00000000D+00 -0.53555637D-02  0.28505669D-02  0.25049967D-02  0.33816060D-01
  0.00000000D+00  0.00000000D+00 -0.27303456D-01 -0.49251539D-01 -0.72609750D-01
 -0.35459717D-01 -0.39222515D-02  0.10418246D-01 -0.11762722D-01  0.00000000D+00
 -0.13761459D-01 -0.24823709D-01 -0.36596691D-01 -0.19030255D-01 -0.22186223D-02
 -0.47570023D-02  0.11022389D-01  0.00000000D+00  0.40336624D-01  0.74185280D-01
  0.12142541D+00  0.16363614D+00  0.16187100D+00  0.18016704D-01  0.72879743D-01
  0.19481087D+00 -0.27824796D-03 -0.13494055D+00 -0.13854962D+00 -0.10470800D+00
  0.66057407D-01  0.67824155D-01  0.51257675D-01  0.00000000D+00  0.00000000D+00
  0.00000000D+00 -0.10779595D+00 -0.38445502D-01  0.20884243D-01  0.00000000D+00
 -0.38449730D-01 -0.66902813D-02  0.30706409D-02  0.00000000D+00  0.14578795D-02
  0.66460886D-04 -0.15243404D-02 -0.58549927D-02  0.00000000D+00  0.00000000D+00
MO    7     MO 0.0        OCC NO =    2.0000000  ORB. ENERGY =   -0.562226
 -0.13709398D-01 -0.24729797D-01 -0.36458240D-01 -0.22037072D-01 -0.30859374D-02
 -0.41754203D-02  0.75819564D-02  0.00000000D+00 -0.75303965D-02 -0.14018532D-01
 -0.23060353D-01 -0.30966184D-01 -0.29155830D-01 -0.23959286D-02 -0.12171889D-01
 -0.32342989D-01  0.43600608D-04 -0.14967519D-01 -0.14005910D-01 -0.10848118D-01
 -0.28412760D+00 -0.26587343D+00 -0.20592925D+00  0.00000000D+00  0.00000000D+00
  0.00000000D+00  0.20774880D-01 -0.45261609D-02 -0.90717122D-01  0.00000000D+00
  0.25520897D-03  0.58548734D-04 -0.65414671D-02  0.00000000D+00 -0.12903735D-01
  0.13926080D-01 -0.10223448D-02  0.31952419D-02  0.00000000D+00  0.00000000D+00
  0.83128437D-03  0.15279025D-02  0.24971934D-02  0.33520664D-02  0.32523432D-02
  0.32411436D-03  0.12009610D-02  0.32782608D-02 -0.37098530D-05  0.78004086D+00
  0.76723283D+00  0.58811446D+00 -0.21121900D+00 -0.20775085D+00 -0.15924928D+00
  0.00000000D+00  0.00000000D+00  0.00000000D+00 -0.56619664D-03  0.25480254D+00
 -0.67517662D-01  0.00000000D+00  0.15316972D-03  0.34413522D-01 -0.10493664D-01
  0.00000000D+00 -0.11303315D-01  0.10962544D-01  0.34077143D-03  0.18204501D-01
  0.00000000D+00  0.00000000D+00  0.20795111D-01  0.37511414D-01  0.55301712D-01
  0.28172674D-01  0.35208678D-02  0.78301144D-02  0.13313111D-01  0.00000000D+00
 -0.40629455D-01 -0.73289739D-01 -0.10804839D+00 -0.58822095D-01 -0.81551146D-02
 -0.18513319D-01  0.23118964D-02  0.00000000D+00  0.18782731D-01  0.34544342D-01
  0.56541689D-01  0.76197097D-01  0.75375158D-01  0.83894702D-02  0.33666902D-01
  0.89993163D-01 -0.12853705D-03 -0.15772989D+00 -0.16194847D+00 -0.12239153D+00
 -0.26331416D+00 -0.27035667D+00 -0.20432034D+00  0.00000000D+00  0.00000000D+00
  0.00000000D+00 -0.48732999D-01 -0.52508698D-01 -0.85415596D-01  0.00000000D+00
 -0.20795048D-01 -0.71901037D-02 -0.12041969D-01  0.00000000D+00  0.12382044D-01
 -0.71768752D-02 -0.52051689D-02  0.32279575D-01  0.00000000D+00  0.00000000D+00
MO    8     MO 0.0        OCC NO =    2.0000000  ORB. ENERGY =   -0.484859
 -0.29927015D-01 -0.53984066D-01 -0.79586743D-01 -0.48462828D-01 -0.51056510D-02
 -0.94353230D-02  0.12133773D-01  0.00000000D+00  0.21481155D-01  0.39989164D-01
  0.65781799D-01  0.88333916D-01  0.83169712D-01  0.68346089D-02  0.35134740D-01
  0.93359583D-01 -0.12585524D-03 -0.13482625D+00 -0.12616415D+00 -0.97719013D-01
 -0.38998308D+00 -0.36492808D+00 -0.28265090D+00  0.00000000D+00  0.00000000D+00
  0.00000000D+00 -0.53195838D-01 -0.42150933D-01 -0.12065371D+00  0.00000000D+00
 -0.16754252D-01  0.22668070D-02 -0.15549294D-01  0.00000000D+00  0.68318371D-02
 -0.54504071D-02 -0.13814300D-02  0.89551976D-02  0.00000000D+00  0.00000000D+00
 -0.71891675D-02 -0.13213706D-01 -0.21596391D-01 -0.28989559D-01 -0.28127126D-01
 -0.28030269D-02 -0.12248247D-01 -0.33434013D-01  0.37835694D-04 -0.17974195D-01
 -0.17679064D-01 -0.13551705D-01  0.61394423D+00  0.60386346D+00  0.46288534D+00
  0.00000000D+00  0.00000000D+00  0.00000000D+00  0.19675730D-01 -0.56449419D-02
  0.20139582D+00  0.00000000D+00  0.58684589D-02 -0.17566894D-02  0.32026629D-01
  0.00000000D+00  0.14938591D-01 -0.15102750D-01  0.16415878D-03  0.23463177D-01
  0.00000000D+00  0.00000000D+00 -0.30372958D-01 -0.54788483D-01 -0.80772666D-01
 -0.44097526D-01 -0.74123023D-02  0.79955353D-02 -0.77960301D-02  0.00000000D+00
  0.10391000D-01  0.18743882D-01  0.27633423D-01  0.16230338D-01  0.27358546D-02
  0.68964577D-02  0.82084956D-02  0.00000000D+00 -0.34797635D-01 -0.63998223D-01
 -0.10475138D+00 -0.14116577D+00 -0.13964302D+00 -0.15542666D-01 -0.62786622D-01
 -0.16783150D+00  0.23971338D-03  0.36917853D+00  0.37905244D+00  0.28646648D+00
 -0.48961606D+00 -0.50271116D+00 -0.37992077D+00  0.00000000D+00  0.00000000D+00
  0.00000000D+00  0.93248743D-01  0.11390522D+00 -0.16306627D+00  0.00000000D+00
  0.40701815D-01  0.18745334D-01 -0.23051816D-01  0.00000000D+00 -0.11717497D-01
 -0.71838648D-06  0.11718215D-01  0.62906575D-01  0.00000000D+00  0.00000000D+00
MO    9     MO 0.0        OCC NO =    2.0000000  ORB. ENERGY =   -0.418611
  0.18552784D-01  0.33466576D-01  0.49338554D-01  0.37221364D-01  0.10460449D-01
 -0.42501799D-02 -0.11167285D-01  0.00000000D+00  0.16865264D-01  0.31396254D-01
  0.51646542D-01  0.69352638D-01  0.65298123D-01  0.53659815D-02  0.27399383D-01
  0.72805291D-01 -0.98146619D-04 -0.37747253D+00 -0.35322128D+00 -0.27358354D+00
  0.18024789D+00  0.16866762D+00  0.13063959D+00  0.00000000D+00  0.00000000D+00
  0.00000000D+00 -0.48324741D-01 -0.11734594D+00  0.57719916D-01  0.00000000D+00
 -0.30802431D-03  0.13599676D-02  0.20517022D-02  0.00000000D+00 -0.13640104D-01
  0.11735916D-01  0.19041885D-02  0.10894137D-01  0.00000000D+00  0.00000000D+00
 -0.23996740D-02 -0.44106060D-02 -0.72086644D-02 -0.96764318D-02 -0.93885600D-02
 -0.93562303D-03 -0.39636045D-02 -0.10819443D-01  0.12243853D-04  0.23108144D+00
  0.22728716D+00  0.17422464D+00 -0.98254812D-01 -0.96641498D-01 -0.74079549D-01
  0.00000000D+00  0.00000000D+00  0.00000000D+00  0.54705122D-02  0.73480757D-01
 -0.33937655D-01  0.00000000D+00  0.32929815D-02  0.35647896D-02  0.45431063D-02
  0.00000000D+00 -0.16325692D-01  0.16171712D-01  0.15397976D-03 -0.12253672D-02
  0.00000000D+00  0.00000000D+00  0.11465475D-01  0.20682080D-01  0.30490838D-01
  0.28899144D-01  0.60076505D-02  0.11248333D-02  0.79343046D-02  0.00000000D+00
 -0.14785450D-01 -0.26670843D-01 -0.39319853D-01 -0.33876879D-01 -0.58029526D-02
 -0.73508651D-02  0.70661695D-03  0.00000000D+00 -0.52071131D-01 -0.95766851D-01
 -0.15674982D+00 -0.21124027D+00 -0.20896161D+00 -0.23258024D-01 -0.94065837D-01
 -0.25144227D+00  0.35913446D-03  0.13073835D+01  0.13423503D+01  0.10144727D+01
 -0.43951272D-02 -0.45126777D-02 -0.34104276D-02  0.00000000D+00  0.00000000D+00
  0.00000000D+00  0.13955346D+00  0.40297418D+00  0.29651628D-02  0.00000000D+00
  0.69413077D-01  0.68199865D-01  0.30886851D-03  0.00000000D+00 -0.57757062D-01
  0.28704819D-01  0.29052244D-01  0.20304396D-02  0.00000000D+00  0.00000000D+00
MO   10     MO 0.0        OCC NO =    2.0000000  ORB. ENERGY =   -0.409986
  0.00000000D+00  0.00000000D+00  0.00000000D+00  0.00000000D+00  0.00000000D+00
  0.00000000D+00  0.00000000D+00  0.10971306D-01  0.00000000D+00  0.00000000D+00
  0.00000000D+00  0.00000000D+00  0.00000000D+00  0.00000000D+00  0.00000000D+00
  0.00000000D+00  0.00000000D+00  0.00000000D+00  0.00000000D+00  0.00000000D+00
  0.00000000D+00  0.00000000D+00  0.00000000D+00  0.44624953D+00  0.41757961D+00
  0.32343155D+00  0.00000000D+00  0.00000000D+00  0.00000000D+00  0.15012313D+00
  0.00000000D+00  0.00000000D+00  0.00000000D+00  0.24229167D-01  0.00000000D+00
  0.00000000D+00  0.00000000D+00  0.00000000D+00  0.18878165D-01 -0.21666140D-01
  0.00000000D+00  0.00000000D+00  0.00000000D+00  0.00000000D+00  0.00000000D+00
  0.00000000D+00  0.00000000D+00  0.00000000D+00  0.00000000D+00  0.00000000D+00
  0.00000000D+00  0.00000000D+00  0.00000000D+00  0.00000000D+00  0.00000000D+00
  0.54824100D+00  0.53923905D+00  0.41334816D+00  0.00000000D+00  0.00000000D+00
  0.00000000D+00  0.18413795D+00  0.00000000D+00  0.00000000D+00  0.00000000D+00
  0.35655154D-01  0.00000000D+00  0.00000000D+00  0.00000000D+00  0.00000000D+00
  0.21954869D-01  0.23844517D-01  0.00000000D+00  0.00000000D+00  0.00000000D+00
  0.00000000D+00  0.00000000D+00  0.00000000D+00  0.00000000D+00  0.11503633D-01
  0.00000000D+00  0.00000000D+00  0.00000000D+00  0.00000000D+00  0.00000000D+00
  0.00000000D+00  0.00000000D+00  0.11200938D-01  0.00000000D+00  0.00000000D+00
  0.00000000D+00  0.00000000D+00  0.00000000D+00  0.00000000D+00  0.00000000D+00
  0.00000000D+00  0.00000000D+00  0.00000000D+00  0.00000000D+00  0.00000000D+00
  0.00000000D+00  0.00000000D+00  0.00000000D+00  0.92779101D+00  0.95260538D+00
  0.71992547D+00  0.00000000D+00  0.00000000D+00  0.00000000D+00  0.30747064D+00
  0.00000000D+00  0.00000000D+00  0.00000000D+00  0.50003617D-01  0.00000000D+00
  0.00000000D+00  0.00000000D+00  0.00000000D+00 -0.92179883D-01  0.10769862D-01
MO   11     MO 0.0        OCC NO =    2.0000000  ORB. ENERGY =   -0.280849
  0.00000000D+00  0.00000000D+00  0.00000000D+00  0.00000000D+00  0.00000000D+00
  0.00000000D+00  0.00000000D+00 -0.44253184D-03  0.00000000D+00  0.00000000D+00
  0.00000000D+00  0.00000000D+00  0.00000000D+00  0.00000000D+00  0.00000000D+00
  0.00000000D+00  0.00000000D+00  0.00000000D+00  0.00000000D+00  0.00000000D+00
  0.00000000D+00  0.00000000D+00  0.00000000D+00 -0.62962641D-01 -0.58917519D-01
 -0.45633896D-01  0.00000000D+00  0.00000000D+00  0.00000000D+00 -0.20941722D-01
  0.00000000D+00  0.00000000D+00  0.00000000D+00 -0.66311113D-02  0.00000000D+00
  0.00000000D+00  0.00000000D+00  0.00000000D+00 -0.63213236D-01 -0.16280562D-01
  0.00000000D+00  0.00000000D+00  0.00000000D+00  0.00000000D+00  0.00000000D+00
  0.00000000D+00  0.00000000D+00  0.00000000D+00  0.00000000D+00  0.00000000D+00
  0.00000000D+00  0.00000000D+00  0.00000000D+00  0.00000000D+00  0.00000000D+00
  0.89394317D+00  0.87926490D+00  0.67399149D+00  0.00000000D+00  0.00000000D+00
  0.00000000D+00  0.28725249D+00  0.00000000D+00  0.00000000D+00  0.00000000D+00
  0.76632638D-01  0.00000000D+00  0.00000000D+00  0.00000000D+00  0.00000000D+00
 -0.31652876D-02  0.21959808D-02  0.00000000D+00  0.00000000D+00  0.00000000D+00
  0.00000000D+00  0.00000000D+00  0.00000000D+00  0.00000000D+00  0.18649566D-01
  0.00000000D+00  0.00000000D+00  0.00000000D+00  0.00000000D+00  0.00000000D+00
  0.00000000D+00  0.00000000D+00  0.21316545D-01  0.00000000D+00  0.00000000D+00
  0.00000000D+00  0.00000000D+00  0.00000000D+00  0.00000000D+00  0.00000000D+00
  0.00000000D+00  0.00000000D+00  0.00000000D+00  0.00000000D+00  0.00000000D+00
  0.00000000D+00  0.00000000D+00  0.00000000D+00 -0.10737334D+01 -0.11024511D+01
 -0.83317039D+00  0.00000000D+00  0.00000000D+00  0.00000000D+00 -0.34522523D+00
  0.00000000D+00  0.00000000D+00  0.00000000D+00 -0.71763703D-01  0.00000000D+00
  0.00000000D+00  0.00000000D+00  0.00000000D+00  0.56660252D-01 -0.98647740D-02
MO   12     MO 0.0        OCC NO =    2.0000000  ORB. ENERGY =   -0.262563
 -0.22381510D-01 -0.40373050D-01 -0.59520518D-01 -0.57160699D-01 -0.19747833D-01
  0.29381705D-03 -0.14253314D-02  0.00000000D+00  0.40406065D-02  0.75219641D-02
  0.12373560D-01  0.16615615D-01  0.15644228D-01  0.12855903D-02  0.67431469D-02
  0.17917804D-01 -0.24154452D-04  0.31743548D-01  0.29704140D-01  0.23007005D-01
 -0.73220591D-01 -0.68516433D-01 -0.53068626D-01  0.00000000D+00  0.00000000D+00
  0.00000000D+00 -0.79229240D-02  0.96386941D-02 -0.29015812D-01  0.00000000D+00
 -0.12058108D-01  0.10477673D-01  0.12350921D-01  0.00000000D+00  0.14466240D-01
 -0.13157452D-01 -0.13087880D-02  0.85581580D-01  0.00000000D+00  0.00000000D+00
 -0.22307313D-01 -0.41000889D-01 -0.67011576D-01 -0.89951883D-01 -0.87275834D-01
 -0.86975297D-02 -0.37262736D-01 -0.10171601D+00  0.11510721D-03  0.21704150D+00
  0.21347775D+00  0.16363918D+00  0.21008187D+00  0.20663239D+00  0.15839194D+00
  0.00000000D+00  0.00000000D+00  0.00000000D+00  0.53260147D-01  0.66495114D-01
  0.59800898D-01  0.00000000D+00  0.64906953D-01  0.16293670D-01  0.16142644D-01
  0.00000000D+00  0.16617374D-02 -0.43830520D-02  0.27213146D-02 -0.56954644D-02
  0.00000000D+00  0.00000000D+00 -0.42472257D-02 -0.76613893D-02 -0.11294907D-01
 -0.13467263D-01 -0.92981951D-02  0.20541125D-02 -0.36935628D-02  0.00000000D+00
 -0.59556075D-02 -0.10743066D-01 -0.15838111D-01 -0.18968405D-01 -0.40096537D-02
 -0.34022116D-02  0.55679137D-02  0.00000000D+00 -0.20754052D-02 -0.38169906D-02
 -0.62475960D-02 -0.84194280D-02 -0.83286076D-02 -0.92699779D-03 -0.40626142D-02
 -0.10859553D-01  0.15510677D-04  0.17026473D+00  0.17481857D+00  0.13211802D+00
  0.15476613D+01  0.15890545D+01  0.12009179D+01  0.00000000D+00  0.00000000D+00
  0.00000000D+00  0.91763118D-02  0.54796170D-01  0.49558879D+00  0.00000000D+00
 -0.49430978D-02  0.13647606D-01  0.10135273D+00  0.00000000D+00 -0.60783498D-02
  0.57793054D-02  0.29904443D-03 -0.62788926D-01  0.00000000D+00  0.00000000D+00
END DATA
 TOTAL ENERGY =   -169.946263300509 THE VIRIAL(-V/T)=   2.00304725
