 Formamide B3LYP/6-311G** trial 9
GAUSSIAN             12 MOL ORBITALS    120 PRIMITIVES        6 NUCLEI
  H    1    (CENTRE  1)  -1.09195186  2.73040408  0.35660682  CHARGE =  1.0
  C    2    (CENTRE  2)  -0.07003369  0.73643516 -0.04393249  CHARGE =  6.0
  N    3    (CENTRE  3)  -1.77867740 -1.01879223 -0.03469071  CHARGE =  7.0
  H    4    (CENTRE  4)  -0.76958571 -2.81609497  0.36294468  CHARGE =  1.0
  H    5    (CENTRE  5)  -3.48073701 -0.67163547  0.12768271  CHARGE =  1.0
  O    6    (CENTRE  6)   2.29896839  0.44168133  0.00994958  CHARGE =  8.0
CENTRE ASSIGNMENTS    1  1  1  1  1  1  1  1  2  2  2  2  2  2  2  2  2  2  2  2
CENTRE ASSIGNMENTS    2  2  2  2  2  2  2  2  2  2  2  2  2  2  2  2  2  2  2  2
CENTRE ASSIGNMENTS    3  3  3  3  3  3  3  3  3  3  3  3  3  3  3  3  3  3  3  3
CENTRE ASSIGNMENTS    3  3  3  3  3  3  3  3  3  3  3  3  4  4  4  4  4  4  4  4
CENTRE ASSIGNMENTS    5  5  5  5  5  5  5  5  6  6  6  6  6  6  6  6  6  6  6  6
CENTRE ASSIGNMENTS    6  6  6  6  6  6  6  6  6  6  6  6  6  6  6  6  6  6  6  6
TYPE ASSIGNMENTS      1  1  1  1  1  2  3  4  1  1  1  1  1  1  1  1  1  2  2  2
TYPE ASSIGNMENTS      3  3  3  4  4  4  1  2  3  4  1  2  3  4  5  6  7  8  9 10
TYPE ASSIGNMENTS      1  1  1  1  1  1  1  1  1  2  2  2  3  3  3  4  4  4  1  2
TYPE ASSIGNMENTS      3  4  1  2  3  4  5  6  7  8  9 10  1  1  1  1  1  2  3  4
TYPE ASSIGNMENTS      1  1  1  1  1  2  3  4  1  1  1  1  1  1  1  1  1  2  2  2
TYPE ASSIGNMENTS      3  3  3  4  4  4  1  2  3  4  1  2  3  4  5  6  7  8  9 10
EXPONENTS  0.3386500D+02 0.5094790D+01 0.1158790D+01 0.3258400D+00 0.1027410D+00
EXPONENTS  0.7500000D+00 0.7500000D+00 0.7500000D+00 0.4563240D+04 0.6820240D+03
EXPONENTS  0.1549730D+03 0.4445530D+02 0.1302900D+02 0.1827730D+01 0.2096420D+02
EXPONENTS  0.4803310D+01 0.1459330D+01 0.2096420D+02 0.4803310D+01 0.1459330D+01
EXPONENTS  0.2096420D+02 0.4803310D+01 0.1459330D+01 0.2096420D+02 0.4803310D+01
EXPONENTS  0.1459330D+01 0.4834560D+00 0.4834560D+00 0.4834560D+00 0.4834560D+00
EXPONENTS  0.1455850D+00 0.1455850D+00 0.1455850D+00 0.1455850D+00 0.6260000D+00
EXPONENTS  0.6260000D+00 0.6260000D+00 0.6260000D+00 0.6260000D+00 0.6260000D+00
EXPONENTS  0.6293480D+04 0.9490440D+03 0.2187760D+03 0.6369160D+02 0.1882820D+02
EXPONENTS  0.2720230D+01 0.3063310D+02 0.7026140D+01 0.2112050D+01 0.3063310D+02
EXPONENTS  0.7026140D+01 0.2112050D+01 0.3063310D+02 0.7026140D+01 0.2112050D+01
EXPONENTS  0.3063310D+02 0.7026140D+01 0.2112050D+01 0.6840090D+00 0.6840090D+00
EXPONENTS  0.6840090D+00 0.6840090D+00 0.2008780D+00 0.2008780D+00 0.2008780D+00
EXPONENTS  0.2008780D+00 0.9130000D+00 0.9130000D+00 0.9130000D+00 0.9130000D+00
EXPONENTS  0.9130000D+00 0.9130000D+00 0.3386500D+02 0.5094790D+01 0.1158790D+01
EXPONENTS  0.3258400D+00 0.1027410D+00 0.7500000D+00 0.7500000D+00 0.7500000D+00
EXPONENTS  0.3386500D+02 0.5094790D+01 0.1158790D+01 0.3258400D+00 0.1027410D+00
EXPONENTS  0.7500000D+00 0.7500000D+00 0.7500000D+00 0.8588500D+04 0.1297230D+04
EXPONENTS  0.2992960D+03 0.8737710D+02 0.2567890D+02 0.3740040D+01 0.4211750D+02
EXPONENTS  0.9628370D+01 0.2853320D+01 0.4211750D+02 0.9628370D+01 0.2853320D+01
EXPONENTS  0.4211750D+02 0.9628370D+01 0.2853320D+01 0.4211750D+02 0.9628370D+01
EXPONENTS  0.2853320D+01 0.9056610D+00 0.9056610D+00 0.9056610D+00 0.9056610D+00
EXPONENTS  0.2556110D+00 0.2556110D+00 0.2556110D+00 0.2556110D+00 0.1292000D+01
EXPONENTS  0.1292000D+01 0.1292000D+01 0.1292000D+01 0.1292000D+01 0.1292000D+01
MO    1     MO 0.0        OCC NO =    2.0000000  ORB. ENERGY =  -19.087261
 -0.40622543D-04 -0.73277271D-04 -0.10803001D-03  0.17505655D-03  0.66341603D-04
 -0.41393858D-03 -0.83023301D-06 -0.45814982D-04 -0.75586098D-05 -0.14071054D-04
 -0.23146751D-04 -0.31082202D-04 -0.29265065D-04 -0.24049052D-05  0.33428314D-04
  0.88825289D-04 -0.11974269D-06  0.91693512D-03  0.85802535D-03  0.66457380D-03
 -0.18959376D-06 -0.17741304D-06 -0.13741326D-06 -0.26836568D-04 -0.25112416D-04
 -0.19450537D-04  0.20321318D-03 -0.46904389D-03 -0.84364251D-04  0.28222665D-04
  0.55883072D-03  0.58366272D-03 -0.22053818D-03 -0.78091092D-05 -0.61876516D-03
  0.53058696D-03  0.88178199D-04  0.41083641D-03 -0.17435275D-04  0.23678949D-04
 -0.30715459D-05 -0.56455080D-05 -0.92269799D-05 -0.12385684D-04 -0.12017213D-04
 -0.11975831D-05  0.37294042D-04  0.10180147D-03 -0.11520391D-06  0.43722343D-03
  0.43004435D-03  0.32964609D-03  0.10042243D-03  0.98773527D-04  0.75713834D-04
  0.58947803D-05  0.57979898D-05  0.44443896D-05 -0.46222667D-04 -0.52951305D-03
 -0.16736304D-03 -0.99808313D-06  0.60899579D-04 -0.42152415D-03  0.31313432D-03
 -0.73550573D-05 -0.91178249D-04  0.79812307D-04  0.11365942D-04 -0.41334111D-03
 -0.10580850D-03  0.12082387D-03 -0.30343029D-04 -0.54734495D-04 -0.80693073D-04
  0.36962197D-03 -0.31640592D-04 -0.12244012D-03  0.16530606D-03 -0.97131486D-04
  0.15586257D-06  0.28115384D-06  0.41449487D-06 -0.47664720D-03  0.29253242D-04
 -0.23924214D-03  0.36232746D-04  0.75478470D-04  0.66434366D+00  0.12218306D+01
  0.19998749D+01  0.26950851D+01  0.26660132D+01  0.29673488D+00  0.63046828D+00
  0.16852704D+01 -0.24070682D-02 -0.65111545D-02 -0.66852995D-02 -0.50523727D-02
  0.35317256D-03  0.36261839D-03  0.27404655D-03 -0.19006884D-03 -0.19515236D-03
 -0.14748515D-03  0.87286498D-02 -0.85485715D-03  0.13388225D-03 -0.38802790D-04
 -0.23319718D-02  0.54757523D-03 -0.34265396D-04  0.26380759D-04  0.59147148D-03
 -0.28011876D-03 -0.31135272D-03 -0.24546473D-03  0.45586723D-04 -0.14061847D-04
MO    2     MO 0.0        OCC NO =    2.0000000  ORB. ENERGY =  -14.353983
 -0.46971297D-04 -0.84729519D-04 -0.12491364D-03 -0.80527575D-04  0.50166444D-04
 -0.10049837D-03  0.34376708D-03  0.49520683D-04 -0.17895977D-04 -0.33315023D-04
 -0.54802900D-04 -0.73591097D-04 -0.69288792D-04 -0.56939213D-05  0.17679923D-03
  0.46978866D-03 -0.63330793D-06 -0.12169755D-02 -0.11387892D-02 -0.88203624D-03
 -0.10599649D-02 -0.99186599D-03 -0.76823855D-03 -0.66561445D-04 -0.62285113D-04
 -0.48242228D-04 -0.15893127D-03  0.11060450D-02  0.95911793D-03  0.54770705D-04
  0.60139959D-03 -0.95236149D-04 -0.31223645D-03 -0.56380047D-05 -0.35846310D-04
 -0.23992953D-03  0.27577585D-03 -0.20439543D-02 -0.26014873D-04  0.69718106D-04
  0.55280288D+00  0.10160529D+01  0.16606299D+01  0.22291192D+01  0.21628034D+01
  0.21553557D+00  0.48353909D+00  0.13199156D+01 -0.14936862D-02 -0.33816942D-03
 -0.33261678D-03 -0.25496398D-03 -0.54817566D-03 -0.53917478D-03 -0.41329890D-03
  0.80985299D-03  0.79655546D-03  0.61059141D-03  0.89336504D-02 -0.64968264D-03
  0.13698653D-02  0.24238945D-03 -0.12117696D-02 -0.54757164D-03 -0.12790532D-03
  0.14976657D-04  0.19833484D-02 -0.28899890D-03 -0.16943495D-02  0.30502671D-03
 -0.42448788D-03 -0.11582032D-03  0.34539252D-04  0.62303884D-04  0.91852347D-04
 -0.25926170D-04  0.22620782D-04  0.44730901D-03 -0.61629955D-03  0.10746413D-03
 -0.14230579D-03 -0.25669934D-03 -0.37844250D-03 -0.12920141D-02  0.10127101D-03
 -0.27641576D-02  0.66628369D-03  0.30176143D-03  0.51205673D-05  0.94175140D-05
  0.15414453D-04  0.20772931D-04  0.20548853D-04  0.22871460D-05  0.48442824D-04
  0.12948988D-03 -0.18495012D-06 -0.59320063D-03 -0.60906616D-03 -0.46029788D-03
 -0.68340667D-04 -0.70168482D-04 -0.53029385D-04 -0.19957360D-04 -0.20491133D-04
 -0.15486044D-04 -0.73574976D-04  0.64389063D-03  0.30394463D-04  0.18194176D-04
 -0.30807865D-03  0.12088762D-03  0.10421610D-03  0.32994042D-05 -0.59024480D-03
  0.49615629D-03  0.94088504D-04 -0.46767682D-03 -0.44077922D-04 -0.37002076D-04
MO    3     MO 0.0        OCC NO =    2.0000000  ORB. ENERGY =  -10.280699
  0.87287579D-04  0.15745434D-03  0.23212920D-03 -0.44748256D-03  0.24950066D-03
 -0.46234155D-03  0.11063435D-02  0.19060213D-03  0.43814446D+00  0.81564658D+00
  0.13417309D+01  0.18017195D+01  0.16963868D+01  0.13940340D+00  0.37107367D+00
  0.98601222D+00 -0.13292134D-02 -0.57670893D-03 -0.53965747D-03 -0.41798557D-03
 -0.82339670D-03 -0.77049644D-03 -0.59677928D-03 -0.50479133D-03 -0.47236031D-03
 -0.36586132D-03  0.67626858D-02 -0.16615511D-03 -0.79819025D-03  0.24987271D-03
  0.23854621D-03  0.16799090D-03 -0.31843422D-03 -0.25850516D-04  0.13160044D-02
  0.18141805D-03 -0.14974224D-02  0.10427329D-02 -0.89194254D-04  0.19296762D-03
 -0.89267492D-04 -0.16407385D-03 -0.26816118D-03 -0.35996173D-03 -0.34925295D-03
 -0.34805029D-04  0.31632176D-04  0.86346283D-04 -0.97714013D-07  0.18984428D-02
  0.18672709D-02  0.14313374D-02  0.20888401D-02  0.20545420D-02  0.15748881D-02
  0.15626552D-04  0.15369969D-04  0.11781692D-04  0.13428578D-03 -0.17203623D-02
 -0.17183792D-02  0.54388242D-05 -0.99489690D-03 -0.66486419D-03 -0.10907444D-03
 -0.85274877D-05 -0.69774638D-04 -0.11068937D-02  0.11766683D-02 -0.28348297D-02
 -0.18116574D-03  0.81674682D-04 -0.18684861D-04 -0.33704823D-04 -0.49689794D-04
  0.37334808D-03  0.36265804D-05  0.20975539D-03  0.31319877D-03 -0.58620708D-04
 -0.43168213D-04 -0.77869298D-04 -0.11479987D-03 -0.39128895D-03 -0.21844901D-04
 -0.32996943D-03  0.44019631D-03  0.90797162D-04 -0.73445050D-04 -0.13507679D-03
 -0.22109177D-03 -0.29794920D-03 -0.29473522D-03 -0.32804871D-04 -0.79372454D-04
 -0.21216619D-03  0.30303652D-06 -0.25386994D-02 -0.26065985D-02 -0.19699203D-02
  0.53989073D-03  0.55433045D-03  0.41893172D-03 -0.54037502D-04 -0.55482770D-04
 -0.41930751D-04  0.40608434D-03  0.15930860D-02 -0.39267634D-03  0.39743646D-04
 -0.12071092D-02  0.61880632D-03 -0.20027879D-05  0.26418126D-04 -0.23378551D-02
  0.99957138D-03  0.13382838D-02  0.12846899D-02 -0.22983131D-03 -0.34074132D-05
MO    4     MO 0.0        OCC NO =    2.0000000  ORB. ENERGY =   -1.025268
  0.47322939D-02  0.85363829D-02  0.12584879D-01  0.57759418D-02 -0.77817844D-03
  0.41252827D-02 -0.51118592D-02 -0.57347509D-03 -0.57814145D-01 -0.10762640D+00
 -0.17704441D+00 -0.23774093D+00 -0.22384205D+00 -0.18394591D-01 -0.91028595D-01
 -0.24188002D+00  0.32607117D-03  0.96298115D-01  0.90111309D-01  0.69794692D-01
 -0.94366144D-01 -0.88303460D-01 -0.68394443D-01  0.69036885D-02  0.64601514D-02
  0.50036370D-02  0.12600933D+00  0.29039692D-01 -0.29564567D-01  0.17279324D-02
  0.11277379D-01 -0.14478655D-02  0.77532368D-03  0.10911357D-03  0.18727205D-01
 -0.60403415D-02 -0.12686864D-01  0.36338991D-02  0.77270226D-03 -0.93557051D-03
 -0.58038134D-01 -0.10667422D+00 -0.17434762D+00 -0.23403265D+00 -0.22707023D+00
 -0.22628830D-01 -0.95319520D-01 -0.26019349D+00  0.29444869D-03  0.79496831D-01
  0.78191518D-01  0.59936906D-01  0.84223420D-01  0.82840497D-01  0.63500533D-01
  0.15489617D-01  0.15235282D-01  0.11678449D-01  0.13395793D+00  0.29557580D-01
  0.26663049D-01  0.50551431D-02  0.31052512D-01  0.40551783D-02  0.92122040D-03
  0.51391441D-03  0.98634838D-02  0.39981733D-05 -0.98674820D-02  0.12198888D-01
  0.54957111D-03 -0.13501348D-02  0.80222576D-02  0.14471008D-01  0.21334080D-01
  0.81206510D-02 -0.58651863D-04 -0.24662651D-02  0.86462278D-02 -0.12740703D-02
  0.10086191D-01  0.18194050D-01  0.26822825D-01  0.12338592D-01 -0.25636296D-03
  0.99029728D-02  0.54788655D-04 -0.69579887D-03 -0.10170053D+00 -0.18704298D+00
 -0.30614929D+00 -0.41257499D+00 -0.40812454D+00 -0.45425426D-01 -0.18088527D+00
 -0.48351458D+00  0.69060286D-03 -0.33557358D+00 -0.34454871D+00 -0.26039050D+00
  0.17760943D-01  0.18235971D-01  0.13781719D-01 -0.58416571D-02 -0.59978960D-02
 -0.45328718D-02  0.25681435D+00 -0.11053512D+00  0.51087176D-02 -0.19085593D-02
  0.68872356D-01 -0.96094041D-02 -0.26739218D-03 -0.96672218D-04  0.31344085D-01
 -0.17802834D-01 -0.13541252D-01 -0.42061133D-02  0.17142732D-02 -0.96154570D-03
MO    5     MO 0.0        OCC NO =    2.0000000  ORB. ENERGY =   -0.937225
  0.20237828D-02  0.36506154D-02  0.53819693D-02  0.35080820D-02 -0.31877677D-04
 -0.25092310D-02 -0.37981672D-02 -0.56044866D-03 -0.57096469D-02 -0.10629038D-01
 -0.17484667D-01 -0.23478973D-01 -0.22106339D-01 -0.18166250D-02 -0.89687661D-02
 -0.23831691D-01  0.32126784D-04 -0.27631765D+00 -0.25856524D+00 -0.20026877D+00
 -0.91960957D-01 -0.86052798D-01 -0.66651218D-01  0.43153961D-03  0.40381475D-03
  0.31277013D-03  0.12468368D-01 -0.82475610D-01 -0.27815252D-01  0.16747870D-03
 -0.46960769D-03 -0.77897329D-03 -0.10764047D-03 -0.21088331D-04 -0.85975819D-02
  0.90776814D-02 -0.48009942D-03  0.24894944D-01 -0.13512270D-02 -0.38440735D-03
 -0.93004297D-01 -0.17094210D+00 -0.27938661D+00 -0.37503000D+00 -0.36387294D+00
 -0.36261994D-01 -0.15324099D+00 -0.41830161D+00  0.47337219D-03 -0.15106804D-01
 -0.14858755D-01 -0.11389826D-01  0.10370087D+00  0.10199813D+00  0.78185621D-01
  0.29633445D-01  0.29146873D-01  0.22342237D-01  0.21617677D+00 -0.47232955D-02
  0.31668390D-01  0.98884229D-02  0.57735091D-01 -0.86753787D-03  0.40943876D-02
  0.91944338D-03  0.83562613D-02  0.65670085D-02 -0.14923270D-01  0.48651198D-02
 -0.17532606D-02 -0.19358909D-02  0.12212155D-01  0.22028986D-01  0.32476532D-01
  0.15764144D-01 -0.82826604D-04 -0.73691492D-02  0.12233723D-01 -0.22271563D-02
  0.22514520D-01  0.40612981D-01  0.59874239D-01  0.21537700D-01  0.30107863D-03
  0.16185436D-01 -0.15908919D-02 -0.86093543D-03  0.83258248D-01  0.15312478D+00
  0.25063246D+00  0.33775902D+00  0.33411561D+00  0.37188021D-01  0.14859246D+00
  0.39719440D+00 -0.56731193D-03  0.20581543D+00  0.21132010D+00  0.15970382D+00
 -0.49677331D-01 -0.51005984D-01 -0.38547448D-01  0.58992517D-02  0.60570310D-02
  0.45775627D-02 -0.21294979D+00  0.68545137D-01 -0.17256527D-01  0.20644182D-02
 -0.59390603D-01  0.53922986D-02 -0.14524798D-02  0.12643098D-03 -0.19704237D-01
  0.10840490D-01  0.88637468D-02  0.17649796D-01 -0.20324306D-02  0.11522500D-02
MO    6     MO 0.0        OCC NO =    2.0000000  ORB. ENERGY =   -0.634002
  0.12600287D-01  0.22729119D-01  0.33508713D-01  0.19723208D-01  0.68857138D-03
  0.17962795D-02 -0.93345368D-02 -0.16653206D-02 -0.51932666D-01 -0.96677479D-01
 -0.15903354D+00 -0.21355536D+00 -0.20107042D+00 -0.16523295D-01 -0.83640636D-01
 -0.22224883D+00  0.29960695D-03 -0.20656467D+00 -0.19329364D+00 -0.14971340D+00
 -0.99131970D-01 -0.92763099D-01 -0.71848606D-01  0.11758617D-02  0.11003169D-02
  0.85223793D-03  0.12460163D+00 -0.59689361D-01 -0.29568887D-01  0.18796818D-04
  0.25313301D-01 -0.58139678D-02 -0.29320799D-03  0.34559474D-03 -0.50300917D-02
  0.96649807D-02 -0.46348890D-02  0.87351718D-02  0.12328504D-03  0.16623494D-02
  0.25394462D-01  0.46675077D-01  0.76285429D-01  0.10240049D+00  0.99354095D-01
  0.99011967D-02  0.42199886D-01  0.11519294D+00 -0.13035841D-03  0.70251637D+00
  0.69098127D+00  0.52966460D+00  0.33943189D+00  0.33385852D+00  0.25591583D+00
 -0.53608517D-01 -0.52728282D-01 -0.40418323D-01 -0.60976841D-01  0.22524321D+00
  0.11274769D+00 -0.17862706D-01 -0.24066961D-01  0.25724959D-01  0.13429166D-01
 -0.22840221D-02 -0.15010534D-01  0.13542863D-01  0.14676701D-02  0.45485577D-01
  0.83290243D-02  0.29103996D-02 -0.61082503D-02 -0.11018412D-01 -0.16244044D-01
 -0.83086881D-02 -0.17225502D-02  0.10430067D-01  0.27081523D-02 -0.14338410D-03
 -0.38631580D-01 -0.69685858D-01 -0.10273532D+00 -0.49687222D-01 -0.54470808D-02
 -0.12981562D-01  0.11242491D-01  0.14406602D-02  0.42102279D-01  0.77432593D-01
  0.12674057D+00  0.17079899D+00  0.16895658D+00  0.18805349D-01  0.75829206D-01
  0.20269492D+00 -0.28950873D-03 -0.14887585D+00 -0.15285763D+00 -0.11552119D+00
 -0.36547895D-01 -0.37525392D-01 -0.28359577D-01 -0.11901590D-02 -0.12219906D-02
 -0.92351162D-03 -0.11159282D+00 -0.44902024D-01 -0.12015422D-01 -0.17716949D-03
 -0.40966728D-01 -0.68291584D-02 -0.13012109D-02 -0.25906471D-03  0.56624771D-02
 -0.24664740D-02 -0.31960030D-02  0.79212273D-02 -0.64576725D-04  0.68536575D-03
MO    7     MO 0.0        OCC NO =    2.0000000  ORB. ENERGY =   -0.589436
  0.21432042D-01  0.38660346D-01  0.56995540D-01  0.34741018D-01  0.34769986D-02
  0.47135920D-02 -0.13198792D-01 -0.32263367D-02 -0.25175018D-01 -0.46865634D-01
 -0.77093527D-01 -0.10352367D+00 -0.97471435D-01 -0.80098767D-02 -0.40927431D-01
 -0.10875185D+00  0.14660509D-03 -0.10800554D+00 -0.10106658D+00 -0.78279971D-01
  0.24415852D+00  0.22847222D+00  0.17696056D+00  0.96395776D-02  0.90202696D-02
  0.69865474D-02  0.59790860D-01 -0.33847138D-01  0.79978134D-01  0.26440499D-02
  0.18792077D-01 -0.52575287D-02  0.65942782D-02  0.33853387D-03  0.14788628D-01
 -0.13215930D-01 -0.15726980D-02 -0.22484607D-02 -0.99946974D-03  0.37214136D-02
  0.16687698D-01  0.30672026D-01  0.50130151D-01  0.67291380D-01  0.65289476D-01
  0.65064651D-02  0.28202199D-01  0.76983482D-01 -0.87118574D-04 -0.50459726D+00
 -0.49631193D+00 -0.38044282D+00  0.51587869D+00  0.50740813D+00  0.38894849D+00
 -0.33797609D-01 -0.33242663D-01 -0.25481822D-01 -0.42647177D-01 -0.16222836D+00
  0.17031521D+00 -0.11851506D-01 -0.21431021D-01 -0.20411900D-01  0.23255135D-01
 -0.16975589D-02  0.75054616D-03 -0.26304669D-03 -0.48749947D-03  0.78889533D-02
 -0.93205422D-02  0.10956089D-01 -0.34234718D-01 -0.61754548D-01 -0.91042481D-01
 -0.51612624D-01 -0.59142533D-02  0.66661921D-02 -0.20999222D-01  0.46511363D-02
  0.24818293D-01  0.44768660D-01  0.66000805D-01  0.34246224D-01  0.35780817D-02
  0.12276538D-01  0.70431577D-02 -0.23123494D-02  0.25637658D-02  0.47151612D-02
  0.77177089D-02  0.10400592D-01  0.10288400D-01  0.11451283D-02  0.49025806D-02
  0.13104821D-01 -0.18717589D-04 -0.86049888D-03 -0.88351348D-03 -0.66770971D-03
  0.20940523D+00  0.21500591D+00  0.16248935D+00  0.30919270D-02  0.31746226D-02
  0.23992009D-02 -0.81254403D-02  0.41855748D-02  0.67714390D-01  0.16244969D-02
 -0.12164056D-02 -0.23240785D-03  0.97176295D-02 -0.81404851D-04 -0.55719415D-02
  0.28494879D-02  0.27224536D-02 -0.25979241D-01 -0.15156717D-02  0.15525072D-03
MO    8     MO 0.0        OCC NO =    2.0000000  ORB. ENERGY =   -0.462104
 -0.25653874D-01 -0.46275929D-01 -0.68222917D-01 -0.43350989D-01 -0.51712747D-02
 -0.10437480D-01  0.10039372D-01  0.52116861D-03  0.22934417D-01  0.42694545D-01
  0.70232126D-01  0.94309957D-01  0.88796380D-01  0.72969897D-02  0.37998198D-01
  0.10096833D+00 -0.13611236D-03 -0.20463401D+00 -0.19148702D+00 -0.14831410D+00
 -0.34434599D+00 -0.32222300D+00 -0.24957417D+00 -0.12447669D+00 -0.11647951D+00
 -0.90217884D-01 -0.59164479D-01 -0.62871209D-01 -0.10730097D+00 -0.41198227D-01
 -0.19489937D-01  0.33342504D-02 -0.15013970D-01 -0.55577663D-02  0.40615214D-02
 -0.24575616D-02 -0.16039598D-02  0.13316023D-01  0.20359338D-02  0.40455761D-02
 -0.72397222D-02 -0.13306625D-01 -0.21748258D-01 -0.29193415D-01 -0.28324917D-01
 -0.28227380D-02 -0.12385870D-01 -0.33809683D-01  0.38260822D-04  0.66259478D-01
  0.65171518D-01  0.49956558D-01  0.53601249D+00  0.52721133D+00  0.40412844D+00
 -0.21316366D+00 -0.20966357D+00 -0.16071546D+00  0.20392175D-01  0.20355532D-01
  0.17565336D+00 -0.71902142D-01  0.39682312D-02 -0.63360375D-03  0.31409878D-01
 -0.13051669D-01  0.70583881D-02 -0.44247499D-02 -0.26336381D-02  0.28166038D-01
 -0.10160686D-01  0.47950847D-04 -0.23811445D-01 -0.42952450D-01 -0.63323233D-01
 -0.36713399D-01 -0.68048234D-02  0.10272248D-01 -0.48045027D-02 -0.13997286D-02
  0.34956667D-02  0.63056840D-02  0.92962402D-02  0.35892016D-02  0.11194826D-03
  0.39105089D-02  0.94050494D-02 -0.46483638D-02 -0.42981201D-01 -0.79049066D-01
 -0.12938639D+00 -0.17436457D+00 -0.17248370D+00 -0.19197928D-01 -0.77558468D-01
 -0.20731732D+00  0.29611089D-03  0.58234030D+00  0.59791537D+00  0.45187074D+00
 -0.43403224D+00 -0.44564072D+00 -0.33679014D+00 -0.13924712D+00 -0.14297137D+00
 -0.10804971D+00  0.11536813D+00  0.18102508D+00 -0.14349519D+00 -0.47101728D-01
  0.50992133D-01  0.30327808D-01 -0.21531737D-01 -0.67508634D-02 -0.22741788D-01
  0.68189711D-02  0.15922817D-01  0.53223280D-01  0.16687730D-01 -0.72677319D-03
MO    9     MO 0.0        OCC NO =    2.0000000  ORB. ENERGY =   -0.419240
  0.92535297D-02  0.16692047D-01  0.24608478D-01  0.18393429D-01  0.56162016D-02
 -0.24615954D-02 -0.70473787D-02  0.58617594D-02  0.14086986D-01  0.26224231D-01
  0.43138614D-01  0.57927919D-01  0.54541319D-01  0.44820233D-02  0.23248725D-01
  0.61776216D-01 -0.83278655D-04 -0.23013805D+00 -0.21535251D+00 -0.16679884D+00
  0.39252959D-01  0.36731098D-01  0.28449655D-01  0.35720589D+00  0.33425670D+00
  0.25889473D+00 -0.39506096D-01 -0.73955510D-01  0.14431177D-01  0.12017807D+00
 -0.64925451D-02  0.39538202D-03 -0.97812910D-03  0.18531685D-01 -0.73950730D-02
  0.57868252D-02  0.16082478D-02  0.45604555D-02  0.17980336D-02 -0.20531159D-01
  0.30289719D-02  0.55672570D-02  0.90990870D-02  0.12214009D-01  0.11850645D-01
  0.11809837D-02  0.50532517D-02  0.13793850D-01 -0.15609850D-04  0.12338344D+00
  0.12135752D+00  0.93025362D-01  0.68783072D-01  0.67653675D-01  0.51859230D-01
  0.55504882D+00  0.54593509D+00  0.41848094D+00 -0.79470306D-02  0.38166121D-01
  0.20388607D-01  0.18639376D+00 -0.13143135D-02  0.44419504D-03  0.96129925D-02
  0.35828696D-01 -0.92806046D-02  0.73266452D-02  0.19539594D-02  0.14775923D-02
  0.22314455D-01  0.25845011D-01  0.52025746D-02  0.93847024D-02  0.13835525D-01
  0.12611659D-01  0.32954034D-02 -0.10823710D-02  0.62129262D-02  0.90535795D-02
 -0.49866778D-02 -0.89952552D-02 -0.13261377D-01 -0.15671689D-01 -0.25057644D-02
 -0.10983926D-02  0.27882921D-02  0.13506287D-01 -0.33340437D-01 -0.61318213D-01
 -0.10036478D+00 -0.13525427D+00 -0.13379528D+00 -0.14891797D-01 -0.60212310D-01
 -0.16095025D+00  0.22988490D-03  0.73297954D+00  0.75258356D+00  0.56876025D+00
 -0.83650872D-01 -0.85888168D-01 -0.64909438D-01  0.60894460D+00  0.62523122D+00
  0.47251452D+00  0.89013236D-01  0.22648732D+00 -0.25967545D-01  0.20189640D+00
  0.43412600D-01  0.38953382D-01 -0.43091684D-02  0.32697360D-01 -0.29609404D-01
  0.14830673D-01  0.14778730D-01  0.78796246D-02 -0.64243696D-01  0.47276460D-02
MO   10     MO 0.0        OCC NO =    2.0000000  ORB. ENERGY =   -0.397551
  0.22072161D-01  0.39815030D-01  0.58697849D-01  0.42874666D-01  0.10733532D-01
 -0.21775364D-03 -0.93313846D-02 -0.75676501D-02  0.89485888D-02  0.16658629D-01
  0.27403287D-01  0.36798016D-01  0.34646719D-01  0.28471516D-02  0.14522860D-01
  0.38589958D-01 -0.52021959D-04 -0.25471522D+00 -0.23835069D+00 -0.18461182D+00
  0.26994743D+00  0.25260428D+00  0.19565178D+00 -0.21249178D+00 -0.19883995D+00
 -0.15400923D+00 -0.26478583D-01 -0.85820569D-01  0.87720420D-01 -0.71121831D-01
  0.28409761D-02 -0.11271738D-02  0.10772316D-01 -0.12377511D-01 -0.12650148D-01
  0.10555287D-01  0.20948608D-02  0.87416529D-02 -0.44237569D-02  0.16344280D-01
 -0.45751168D-02 -0.84090747D-02 -0.13743735D-01 -0.18448675D-01 -0.17899831D-01
 -0.17838193D-02 -0.76664363D-02 -0.20927055D-01  0.23682160D-04  0.14835177D+00
  0.14591588D+00  0.11185032D+00 -0.26667675D+00 -0.26229800D+00 -0.20106184D+00
 -0.33916945D+00 -0.33360040D+00 -0.25571796D+00  0.10585943D-01  0.45196777D-01
 -0.90909966D-01 -0.11295555D+00  0.13375881D-01  0.36668131D-03 -0.97829214D-02
 -0.22810214D-01 -0.16265926D-01  0.17252526D-01 -0.98659966D-03 -0.12523619D-01
 -0.93896747D-02 -0.19863008D-01  0.16205598D-01  0.29232587D-01  0.43096539D-01
  0.34107098D-01  0.86830173D-02 -0.72182635D-02  0.42256354D-02 -0.94211041D-02
 -0.13208174D-01 -0.23825661D-01 -0.35125305D-01 -0.30644764D-01 -0.45907455D-02
 -0.73259571D-02 -0.24169505D-02 -0.64303224D-02 -0.31995119D-01 -0.58843964D-01
 -0.96314965D-01 -0.12979663D+00 -0.12839651D+00 -0.14290898D-01 -0.57732289D-01
 -0.15432104D+00  0.22041641D-03  0.95963904D+00  0.98530521D+00  0.74463816D+00
  0.24434487D+00  0.25088004D+00  0.18960100D+00 -0.37222813D+00 -0.38218361D+00
 -0.28883284D+00  0.84275477D-01  0.29691203D+00  0.83178118D-01 -0.12381822D+00
  0.45837344D-01  0.51115553D-01  0.13021248D-01 -0.20262741D-01 -0.40873734D-01
  0.21772055D-01  0.19101679D-01 -0.24330279D-01  0.35902129D-01 -0.36401088D-02
MO   11     MO 0.0        OCC NO =    2.0000000  ORB. ENERGY =   -0.283080
 -0.15007594D-03 -0.27071558D-03 -0.39910613D-03  0.28481011D-02  0.11291441D-02
 -0.14938515D-02  0.15673955D-03 -0.77550184D-03 -0.15039204D-02 -0.27996874D-02
 -0.46054595D-02 -0.61843592D-02 -0.58228073D-02 -0.47849884D-03 -0.24866036D-02
 -0.66073714D-02  0.89071982D-05 -0.10593331D-01 -0.99127477D-02 -0.76778062D-02
 -0.69807617D-02 -0.65322730D-02 -0.50594979D-02 -0.10634457D+00 -0.99512312D-01
 -0.77076132D-01  0.40328329D-02 -0.22778513D-02  0.35063308D-03 -0.37008816D-01
 -0.30822176D-02  0.40722618D-03 -0.99657652D-03 -0.12087181D-01  0.15878907D-02
 -0.99104309D-03 -0.59684764D-03 -0.42118249D-02 -0.64885644D-01 -0.14022783D-01
  0.74113865D-02  0.13622145D-01  0.22263941D-01  0.29885633D-01  0.28996542D-01
  0.28896692D-02  0.12610031D-01  0.34421575D-01 -0.38953272D-04  0.71454010D-02
  0.70280757D-02  0.53872993D-02  0.74275278D-01  0.73055701D-01  0.56000098D-01
  0.76596251D+00  0.75338564D+00  0.57750003D+00 -0.20555240D-01  0.27288903D-02
  0.23221351D-01  0.24608386D+00 -0.89333624D-02  0.28331336D-02  0.66341943D-02
  0.66983412D-01 -0.17180345D-02 -0.53800577D-03  0.22560402D-02 -0.74440785D-03
 -0.48911528D-02  0.29494997D-02  0.29721615D-02  0.53613553D-02  0.79040509D-02
  0.23641499D-02  0.11328077D-02 -0.10024353D-02  0.13845565D-02  0.12499580D-01
  0.25756808D-02  0.46461608D-02  0.68496656D-02  0.44049481D-02  0.12467460D-02
  0.28080377D-02  0.18210885D-02  0.20172878D-01 -0.23012023D-04 -0.42322664D-04
 -0.69273135D-04 -0.93354336D-04 -0.92347321D-04 -0.10278520D-04 -0.10490515D-04
 -0.28041624D-04  0.40051792D-07  0.27097237D-01  0.27821970D-01  0.21026277D-01
 -0.92678465D-01 -0.95157211D-01 -0.71914458D-01 -0.12465957D+01 -0.12799368D+01
 -0.96730408D+00 -0.10130341D-03  0.89472272D-02 -0.30294210D-01 -0.40073208D+00
  0.57426204D-03  0.15115094D-02 -0.54681716D-02 -0.82539603D-01 -0.16966965D-02
 -0.66751186D-04  0.17634477D-02  0.49937235D-02  0.67818381D-01 -0.76706418D-02
MO   12     MO 0.0        OCC NO =    2.0000000  ORB. ENERGY =   -0.258525
 -0.23040013D-01 -0.41560897D-01 -0.61271717D-01 -0.57185088D-01 -0.21312942D-01
  0.17677431D-02 -0.52408478D-03  0.53284888D-03  0.18940006D-02  0.35258580D-02
  0.58000032D-02  0.77884309D-02  0.73331013D-02  0.60260975D-03  0.32183651D-02
  0.85517987D-02 -0.11528422D-04  0.22351818D-01  0.20915795D-01  0.16200092D-01
 -0.74925165D-01 -0.70111494D-01 -0.54304062D-01  0.29998579D-02  0.28071278D-02
  0.21742290D-02 -0.22936891D-02  0.90051854D-02 -0.28924960D-01 -0.54929503D-03
 -0.13572152D-01  0.10682930D-01  0.12009694D-01  0.12698198D-02  0.13699449D-01
 -0.12283403D-01 -0.14160468D-02  0.80191685D-01  0.18180972D-03 -0.53026833D-02
 -0.19870575D-01 -0.36522161D-01 -0.59691571D-01 -0.80125996D-01 -0.77742265D-01
 -0.77474558D-02 -0.33127217D-01 -0.90427294D-01  0.10233230D-03  0.18675411D+00
  0.18368766D+00  0.14080389D+00  0.17406551D+00  0.17120740D+00  0.13123728D+00
  0.99528553D-01  0.97894325D-01  0.75039890D-01  0.46554207D-01  0.53367943D-01
  0.50668779D-01  0.33953098D-01  0.63275921D-01  0.14654193D-01  0.12291871D-01
  0.94003943D-02  0.47062861D-02 -0.70459505D-02  0.23396644D-02 -0.27709430D-02
  0.19986941D-02  0.11475884D-02 -0.38923593D-02 -0.70212609D-02 -0.10351189D-01
 -0.13724360D-01 -0.12137515D-01 -0.16330599D-02 -0.16575903D-02  0.33339344D-02
 -0.42290576D-02 -0.76286165D-02 -0.11246592D-01 -0.16688878D-01 -0.26589558D-02
 -0.42257227D-02  0.49826344D-02  0.34070433D-02 -0.28396834D-02 -0.52226163D-02
 -0.85483043D-02 -0.11519924D-01 -0.11395659D-01 -0.12683693D-02 -0.54817683D-02
 -0.14653016D-01  0.20928872D-04  0.12500931D+00  0.12835277D+00  0.97001788D-01
  0.15409665D+01  0.15821806D+01  0.11957230D+01  0.10748106D-01  0.11035571D-01
  0.83400624D-02  0.12111942D-01  0.40423555D-01  0.49178310D+00  0.34333820D-02
 -0.49310386D-02  0.11264100D-01  0.10218511D+00  0.39093195D-03 -0.44283341D-02
  0.30977101D-02  0.13306241D-02 -0.61913682D-01 -0.43654829D-03 -0.19080225D-02
END DATA
 TOTAL ENERGY =   -169.912644729563 THE VIRIAL(-V/T)=   2.00343668
