 Formamide B3LYP/6-311G** trial 8
GAUSSIAN             12 MOL ORBITALS    120 PRIMITIVES        6 NUCLEI
  H    1    (CENTRE  1)  -0.90726603  2.56040661  0.00052296  CHARGE =  1.0
  C    2    (CENTRE  2)  -0.01762978  0.81499470 -0.03115232  CHARGE =  6.0
  N    3    (CENTRE  3)  -1.66566407 -0.97566553  0.05384606  CHARGE =  7.0
  H    4    (CENTRE  4)  -0.82120542 -2.64979468 -0.31600946  CHARGE =  1.0
  H    5    (CENTRE  5)  -3.70465130 -1.21703791 -0.18419178  CHARGE =  1.0
  O    6    (CENTRE  6)   2.16643763  0.37958854  0.00771485  CHARGE =  8.0
CENTRE ASSIGNMENTS    1  1  1  1  1  1  1  1  2  2  2  2  2  2  2  2  2  2  2  2
CENTRE ASSIGNMENTS    2  2  2  2  2  2  2  2  2  2  2  2  2  2  2  2  2  2  2  2
CENTRE ASSIGNMENTS    3  3  3  3  3  3  3  3  3  3  3  3  3  3  3  3  3  3  3  3
CENTRE ASSIGNMENTS    3  3  3  3  3  3  3  3  3  3  3  3  4  4  4  4  4  4  4  4
CENTRE ASSIGNMENTS    5  5  5  5  5  5  5  5  6  6  6  6  6  6  6  6  6  6  6  6
CENTRE ASSIGNMENTS    6  6  6  6  6  6  6  6  6  6  6  6  6  6  6  6  6  6  6  6
TYPE ASSIGNMENTS      1  1  1  1  1  2  3  4  1  1  1  1  1  1  1  1  1  2  2  2
TYPE ASSIGNMENTS      3  3  3  4  4  4  1  2  3  4  1  2  3  4  5  6  7  8  9 10
TYPE ASSIGNMENTS      1  1  1  1  1  1  1  1  1  2  2  2  3  3  3  4  4  4  1  2
TYPE ASSIGNMENTS      3  4  1  2  3  4  5  6  7  8  9 10  1  1  1  1  1  2  3  4
TYPE ASSIGNMENTS      1  1  1  1  1  2  3  4  1  1  1  1  1  1  1  1  1  2  2  2
TYPE ASSIGNMENTS      3  3  3  4  4  4  1  2  3  4  1  2  3  4  5  6  7  8  9 10
EXPONENTS  0.3386500D+02 0.5094790D+01 0.1158790D+01 0.3258400D+00 0.1027410D+00
EXPONENTS  0.7500000D+00 0.7500000D+00 0.7500000D+00 0.4563240D+04 0.6820240D+03
EXPONENTS  0.1549730D+03 0.4445530D+02 0.1302900D+02 0.1827730D+01 0.2096420D+02
EXPONENTS  0.4803310D+01 0.1459330D+01 0.2096420D+02 0.4803310D+01 0.1459330D+01
EXPONENTS  0.2096420D+02 0.4803310D+01 0.1459330D+01 0.2096420D+02 0.4803310D+01
EXPONENTS  0.1459330D+01 0.4834560D+00 0.4834560D+00 0.4834560D+00 0.4834560D+00
EXPONENTS  0.1455850D+00 0.1455850D+00 0.1455850D+00 0.1455850D+00 0.6260000D+00
EXPONENTS  0.6260000D+00 0.6260000D+00 0.6260000D+00 0.6260000D+00 0.6260000D+00
EXPONENTS  0.6293480D+04 0.9490440D+03 0.2187760D+03 0.6369160D+02 0.1882820D+02
EXPONENTS  0.2720230D+01 0.3063310D+02 0.7026140D+01 0.2112050D+01 0.3063310D+02
EXPONENTS  0.7026140D+01 0.2112050D+01 0.3063310D+02 0.7026140D+01 0.2112050D+01
EXPONENTS  0.3063310D+02 0.7026140D+01 0.2112050D+01 0.6840090D+00 0.6840090D+00
EXPONENTS  0.6840090D+00 0.6840090D+00 0.2008780D+00 0.2008780D+00 0.2008780D+00
EXPONENTS  0.2008780D+00 0.9130000D+00 0.9130000D+00 0.9130000D+00 0.9130000D+00
EXPONENTS  0.9130000D+00 0.9130000D+00 0.3386500D+02 0.5094790D+01 0.1158790D+01
EXPONENTS  0.3258400D+00 0.1027410D+00 0.7500000D+00 0.7500000D+00 0.7500000D+00
EXPONENTS  0.3386500D+02 0.5094790D+01 0.1158790D+01 0.3258400D+00 0.1027410D+00
EXPONENTS  0.7500000D+00 0.7500000D+00 0.7500000D+00 0.8588500D+04 0.1297230D+04
EXPONENTS  0.2992960D+03 0.8737710D+02 0.2567890D+02 0.3740040D+01 0.4211750D+02
EXPONENTS  0.9628370D+01 0.2853320D+01 0.4211750D+02 0.9628370D+01 0.2853320D+01
EXPONENTS  0.4211750D+02 0.9628370D+01 0.2853320D+01 0.4211750D+02 0.9628370D+01
EXPONENTS  0.2853320D+01 0.9056610D+00 0.9056610D+00 0.9056610D+00 0.9056610D+00
EXPONENTS  0.2556110D+00 0.2556110D+00 0.2556110D+00 0.2556110D+00 0.1292000D+01
EXPONENTS  0.1292000D+01 0.1292000D+01 0.1292000D+01 0.1292000D+01 0.1292000D+01
MO    1     MO 0.0        OCC NO =    2.0000000  ORB. ENERGY =  -19.077646
 -0.72973918D-04 -0.13163454D-03 -0.19406400D-03  0.26292953D-03  0.11995343D-03
 -0.56286556D-03 -0.91057445D-04 -0.17490542D-04 -0.30090983D-04 -0.56017157D-04
 -0.92147697D-04 -0.12373889D-03 -0.11650483D-03 -0.95739776D-05  0.12304399D-03
  0.32695091D-03 -0.44075267D-06  0.10796893D-02  0.10103231D-02  0.78253432D-03
  0.29515976D-04  0.27619682D-04  0.21392511D-04 -0.11530010D-04 -0.10789249D-04
 -0.83566904D-05  0.13473883D-03 -0.10990806D-02 -0.62336949D-04  0.85703668D-05
  0.55000143D-03  0.54479364D-03 -0.32106837D-03  0.66751187D-05 -0.10724257D-02
  0.82124229D-03  0.25118344D-03  0.11113951D-02 -0.53992627D-04 -0.37478366D-04
 -0.93503598D-05 -0.17185982D-04 -0.28088652D-04 -0.37704338D-04 -0.36582642D-04
 -0.36456669D-05  0.84091484D-04  0.22954435D-03 -0.25976450D-06  0.44379675D-03
  0.43650974D-03  0.33460207D-03  0.24435868D-03  0.24034639D-03  0.18423506D-03
 -0.15546726D-04 -0.15291453D-04 -0.11721506D-04 -0.21868754D-03 -0.60888401D-03
 -0.39172702D-03  0.28932454D-04 -0.17965333D-03 -0.37923379D-03  0.18506882D-03
  0.22753403D-05 -0.16027488D-03  0.88034850D-04  0.72240029D-04 -0.73244421D-03
  0.17501145D-03 -0.88097348D-04 -0.39285085D-04 -0.70864688D-04 -0.10447323D-03
  0.32189579D-03 -0.44880244D-04 -0.12851227D-04  0.12456058D-03  0.74832646D-04
  0.18862903D-04  0.34025986D-04  0.50163272D-04 -0.30731679D-03  0.32468467D-04
 -0.16781397D-03 -0.13286138D-03 -0.63816367D-04  0.66428215D+00  0.12217174D+01
  0.19996898D+01  0.26948356D+01  0.26657664D+01  0.29670740D+00  0.63035011D+00
  0.16849545D+01 -0.24066171D-02 -0.63818109D-02 -0.65524965D-02 -0.49520077D-02
  0.10160944D-02  0.10432705D-02  0.78844502D-03 -0.17698916D-03 -0.18172285D-03
 -0.13733589D-03  0.91865219D-02 -0.16871887D-02  0.31159327D-03 -0.48926750D-04
 -0.22512866D-02  0.45247321D-03 -0.34617756D-04  0.16092760D-04  0.12776837D-02
 -0.62575170D-03 -0.65193196D-03 -0.74972676D-03  0.79067088D-04 -0.16810692D-04
MO    2     MO 0.0        OCC NO =    2.0000000  ORB. ENERGY =  -14.338602
 -0.11078134D-03 -0.19983373D-03 -0.29460759D-03 -0.25843706D-03  0.75134256D-04
 -0.18843379D-03  0.58570475D-03  0.31472375D-05 -0.13166705D-04 -0.24511044D-04
 -0.40320436D-04 -0.54143579D-04 -0.50978221D-04 -0.41892198D-05  0.15325380D-03
  0.40722404D-03 -0.54896646D-06 -0.12156289D-02 -0.11375291D-02 -0.88106025D-03
 -0.12635297D-02 -0.11823524D-02 -0.91577767D-03  0.45809832D-04  0.42866716D-04
  0.33201928D-04 -0.42668870D-04  0.12280491D-02  0.14084253D-02 -0.42030996D-04
  0.64485973D-03 -0.15069902D-03 -0.29853588D-03  0.24402855D-04  0.11897037D-03
 -0.33838555D-03  0.21941518D-03 -0.27723240D-02  0.11746619D-03  0.11213950D-03
  0.55282461D+00  0.10160928D+01  0.16606952D+01  0.22292068D+01  0.21628884D+01
  0.21554405D+00  0.48360027D+00  0.13200826D+01 -0.14938752D-02 -0.12631118D-02
 -0.12423719D-02 -0.95232740D-03 -0.61478624D-03 -0.60469164D-03 -0.46352017D-03
 -0.12934826D-02 -0.12722440D-02 -0.97522562D-03  0.85158806D-02  0.15456009D-02
  0.53453738D-03 -0.29510519D-03 -0.13256590D-02 -0.36173236D-03 -0.34868223D-03
 -0.21993086D-04  0.77244757D-03  0.77487691D-03 -0.15473245D-02  0.14913828D-02
 -0.11601480D-03  0.51600896D-03 -0.15240135D-04 -0.27491030D-04 -0.40529024D-04
 -0.54141106D-03  0.55258335D-04  0.85808668D-03 -0.14227738D-02 -0.30577755D-03
  0.39586139D-04  0.71407746D-04  0.10527384D-03 -0.46090498D-03  0.45158947D-04
 -0.11600492D-02  0.10641670D-03 -0.15059736D-03  0.63094521D-05  0.11604057D-04
  0.18993355D-04  0.25595955D-04  0.25319851D-04  0.28181717D-05  0.98489074D-04
  0.26326578D-03 -0.37602196D-06 -0.64771944D-03 -0.66504312D-03 -0.50260212D-03
 -0.72588879D-05 -0.74530315D-05 -0.56325813D-05 -0.26669651D-04 -0.27382948D-04
 -0.20694489D-04 -0.30930122D-03  0.96277681D-03 -0.21644572D-04  0.29207461D-04
 -0.29315954D-03  0.10004096D-03  0.77105478D-04 -0.11746929D-04 -0.71681805D-03
  0.65986464D-03  0.56953402D-04 -0.15638325D-03 -0.17219347D-04 -0.82842024D-04
MO    3     MO 0.0        OCC NO =    2.0000000  ORB. ENERGY =  -10.255080
 -0.56441382D-04 -0.10181220D-03 -0.15009802D-03 -0.13249140D-02  0.35822630D-03
 -0.10795451D-02  0.26771845D-02  0.43216374D-04  0.43797187D+00  0.81532529D+00
  0.13412024D+01  0.18010098D+01  0.16957186D+01  0.13934849D+00  0.37082097D+00
  0.98534076D+00 -0.13283082D-02 -0.23712501D-03 -0.22189058D-03 -0.17186283D-03
 -0.14033810D-02 -0.13132189D-02 -0.10171388D-02  0.38072274D-05  0.35626268D-05
  0.27593921D-05  0.80590950D-02  0.27147496D-04  0.30462769D-03  0.11389056D-03
  0.47182846D-03  0.17359917D-03 -0.36279099D-03  0.13332424D-04  0.14330382D-02
  0.59499932D-03 -0.20280375D-02 -0.95809866D-03 -0.25452916D-04 -0.58024212D-04
 -0.95092813D-04 -0.17478080D-03 -0.28566055D-03 -0.38345172D-03 -0.37204412D-03
 -0.37076297D-04 -0.10786338D-04 -0.29443443D-04  0.33319755D-07  0.15683564D-02
  0.15426045D-02  0.11824676D-02  0.19715049D-02  0.19391334D-02  0.14864228D-02
 -0.84372035D-04 -0.82986672D-04 -0.63612582D-04  0.18978541D-03 -0.11450134D-02
 -0.14124135D-02  0.62374519D-04 -0.10630784D-02 -0.69306752D-03 -0.21994919D-03
  0.16992710D-04 -0.52687703D-04 -0.98463065D-03  0.10373184D-02 -0.20845549D-02
  0.35882418D-03  0.11788933D-03 -0.25638484D-04 -0.46248167D-04 -0.68181988D-04
  0.33105410D-03 -0.10487420D-04  0.32077135D-03  0.28393812D-03  0.52988535D-04
  0.11910100D-04  0.21484120D-04  0.31673256D-04 -0.41241563D-03 -0.31601385D-04
 -0.36428688D-03  0.77748185D-04 -0.10183068D-03 -0.14857545D-03 -0.27325320D-03
 -0.44725696D-03 -0.60273548D-03 -0.59623376D-03 -0.66362520D-04 -0.10410255D-03
 -0.27827085D-03  0.39745367D-06 -0.31878593D-02 -0.32731206D-02 -0.24736401D-02
  0.55457286D-03  0.56940527D-03  0.43032442D-03 -0.43933986D-04 -0.45109028D-04
 -0.34090862D-04  0.20645407D-03  0.23859334D-02 -0.40201684D-03  0.36077619D-04
 -0.16322946D-02  0.72953108D-03 -0.10528771D-03  0.17952156D-04 -0.25031410D-02
  0.99417470D-03  0.15089663D-02  0.12466835D-02 -0.18812947D-03  0.19339933D-04
MO    4     MO 0.0        OCC NO =    2.0000000  ORB. ENERGY =   -1.062145
  0.53071899D-02  0.95734133D-02  0.14113735D-01  0.37724418D-02 -0.86624892D-03
  0.38714811D-02 -0.87486231D-03  0.14808992D-03 -0.59640005D-01 -0.11102540D+00
 -0.18263575D+00 -0.24524916D+00 -0.23091133D+00 -0.18975521D-01 -0.92809634D-01
 -0.24661257D+00  0.33245098D-03  0.17557597D+00  0.16429585D+00  0.12725348D+00
 -0.93880144D-01 -0.87848684D-01 -0.68042202D-01  0.56779988D-02  0.53132079D-02
  0.41152849D-02  0.12568536D+00  0.44775954D-01 -0.26868609D-01  0.13552315D-02
  0.93275091D-02 -0.13426881D-02  0.12940857D-02 -0.88980788D-04  0.17558758D-01
 -0.46407888D-02 -0.12917969D-01 -0.77781706D-02  0.54723463D-03 -0.15690470D-03
 -0.38610531D-01 -0.70966239D-01 -0.11598674D+00 -0.15569289D+00 -0.15106106D+00
 -0.15054087D-01 -0.63322897D-01 -0.17285238D+00  0.19560888D-03  0.10003067D+00
  0.98388202D-01  0.75418467D-01  0.50043883D-01  0.49222178D-01  0.37730756D-01
 -0.13884263D-01 -0.13656288D-01 -0.10468087D-01  0.89212897D-01  0.32122796D-01
  0.17173080D-01 -0.46857350D-02  0.20129622D-01  0.35193671D-02  0.55666542D-03
 -0.37358484D-03  0.75237254D-02 -0.71390293D-03 -0.68098224D-02  0.13030532D-01
 -0.17970922D-02  0.93908694D-03  0.68016502D-02  0.12269207D-01  0.18088044D-01
  0.63514857D-02 -0.17981524D-04 -0.12131235D-02  0.71363577D-02  0.10268276D-02
  0.32551418D-02  0.58718114D-02  0.86565977D-02  0.47526090D-02 -0.19861363D-03
  0.35925923D-02  0.10115410D-02  0.28218774D-03 -0.11409843D+00 -0.20984463D+00
 -0.34347070D+00 -0.46287034D+00 -0.45787735D+00 -0.50963056D-01 -0.20285682D+00
 -0.54224551D+00  0.77448813D-03 -0.41967890D+00 -0.43090349D+00 -0.32565258D+00
  0.58947927D-01  0.60524528D-01  0.45741028D-01 -0.75945945D-02 -0.77977168D-02
 -0.58930750D-02  0.28437178D+00 -0.13566136D+00  0.19140268D-01 -0.23524394D-02
  0.73279175D-01 -0.10412323D-01  0.64010390D-03 -0.25219603D-03  0.41993216D-01
 -0.22669159D-01 -0.19324057D-01 -0.20446671D-01  0.22280974D-02 -0.13311778D-03
MO    5     MO 0.0        OCC NO =    2.0000000  ORB. ENERGY =   -0.918462
  0.44370601D-02  0.80038233D-02  0.11799745D-01  0.66485993D-02 -0.35504066D-03
 -0.21025624D-02 -0.71032764D-02 -0.10713261D-03 -0.15639197D-01 -0.29113817D-01
 -0.47891955D-01 -0.64310858D-01 -0.60551097D-01 -0.49758867D-02 -0.25006874D-01
 -0.66447948D-01  0.89576475D-04 -0.27958520D+00 -0.26162286D+00 -0.20263702D+00
 -0.10597898D+00 -0.99170218D-01 -0.76811167D-01  0.67639530D-03  0.63293935D-03
  0.49023599D-03  0.34648713D-01 -0.78600508D-01 -0.34540073D-01  0.12047183D-04
  0.24427767D-02 -0.11399270D-02  0.51955211D-05 -0.48675639D-04 -0.68479436D-02
  0.92688985D-02 -0.24209549D-02  0.26637881D-01 -0.75426919D-03 -0.81584824D-04
 -0.10184900D+00 -0.18719868D+00 -0.30595625D+00 -0.41069532D+00 -0.39847722D+00
 -0.39710506D-01 -0.16789058D+00 -0.45829057D+00  0.51862580D-03  0.80693665D-01
  0.79368700D-01  0.60839263D-01  0.57521277D-01  0.56576795D-01  0.43368362D-01
 -0.46496383D-01 -0.45732927D-01 -0.35056106D-01  0.23751600D+00  0.21670734D-01
  0.19387741D-01 -0.15730857D-01  0.64197422D-01  0.11786890D-02  0.30862662D-02
 -0.15025034D-02  0.54753618D-02  0.10160780D-01 -0.15636142D-01  0.15884027D-01
 -0.13285944D-02  0.25037281D-02  0.18994574D-01  0.34263502D-01  0.50513434D-01
  0.21893830D-01  0.24584523D-04 -0.79492287D-02  0.16445263D-01  0.28190461D-02
  0.15372386D-01  0.27729591D-01  0.40880726D-01  0.17661809D-01  0.45021418D-03
  0.14751488D-01  0.15727465D-02  0.90723662D-03  0.63616467D-01  0.11700051D+00
  0.19150477D+00  0.25807696D+00  0.25529308D+00  0.28414849D-01  0.11368060D+00
  0.30387343D+00 -0.43402178D-03  0.14961338D+00  0.15361489D+00  0.11609348D+00
 -0.85692228D-01 -0.87984122D-01 -0.66493442D-01  0.45527328D-02  0.46744986D-02
  0.35327226D-02 -0.16170347D+00  0.48161008D-01 -0.28846449D-01  0.14853394D-02
 -0.45095359D-01  0.32668582D-02 -0.24528228D-02  0.17926249D-03 -0.14527248D-01
  0.69281603D-02  0.75990882D-02  0.26355783D-01 -0.14680877D-02  0.55836156D-03
MO    6     MO 0.0        OCC NO =    2.0000000  ORB. ENERGY =   -0.645175
  0.28475842D-01  0.51366356D-01  0.75727548D-01  0.42038181D-01  0.22443835D-02
  0.55362673D-02 -0.18665131D-01  0.25560277D-06 -0.55776464D-01 -0.10383306D+00
 -0.17080442D+00 -0.22936166D+00 -0.21595265D+00 -0.17746267D-01 -0.89848377D-01
 -0.23874396D+00  0.32184354D-03 -0.25095239D+00 -0.23482960D+00 -0.18188461D+00
  0.94976467D-01  0.88874573D-01  0.68836792D-01  0.16892896D-01  0.15807588D-01
  0.12243588D-01  0.13016325D+00 -0.70051071D-01  0.26671764D-01  0.54261009D-02
  0.27575919D-01 -0.59858588D-02  0.30323333D-02 -0.10351704D-04  0.34204874D-02
  0.12448946D-02 -0.46653820D-02  0.52634778D-02 -0.17029623D-02 -0.16844930D-02
  0.26957636D-01  0.49548195D-01  0.80981233D-01  0.10870382D+00  0.10546991D+00
  0.10510672D-01  0.44854551D-01  0.12243937D+00 -0.13855886D-03  0.23670455D+00
  0.23281794D+00  0.17846420D+00  0.57132644D+00  0.56194543D+00  0.43075351D+00
  0.58982654D-01  0.58014177D-01  0.44470172D-01 -0.65115246D-01  0.75715536D-01
  0.18709034D+00  0.19676407D-01 -0.26228170D-01  0.77972112D-02  0.22238638D-01
  0.26169782D-02 -0.87019253D-02  0.71922826D-02  0.15096427D-02  0.31429111D-01
 -0.12520760D-02 -0.12297587D-01 -0.25177767D-01 -0.45417099D-01 -0.66956775D-01
 -0.32450169D-01 -0.36355144D-02  0.12131785D-01 -0.83155268D-02 -0.21994817D-02
 -0.18641306D-01 -0.33626257D-01 -0.49573967D-01 -0.28299555D-01 -0.27935915D-02
 -0.13901226D-01  0.58030090D-02 -0.94856601D-03  0.35056830D-01  0.64474923D-01
  0.10553164D+00  0.14221727D+00  0.14068317D+00  0.15658438D-01  0.63359489D-01
  0.16936280D+00 -0.24190053D-03 -0.86783077D-01 -0.89104146D-01 -0.67339893D-01
  0.84889201D-01  0.87159617D-01  0.65870328D-01  0.13717908D-01  0.14084802D-01
  0.10644500D-01 -0.93085372D-01 -0.22693598D-01  0.26718070D-01  0.47084293D-02
 -0.34468803D-01 -0.39571399D-02  0.40341120D-02  0.77968721D-03 -0.18838712D-02
  0.15435938D-02  0.34027743D-03 -0.71994328D-02 -0.32102990D-02  0.22248595D-03
MO    7     MO 0.0        OCC NO =    2.0000000  ORB. ENERGY =   -0.563142
 -0.23275019D-01 -0.41984813D-01 -0.61896682D-01 -0.35508713D-01 -0.40781060D-02
 -0.85940509D-02  0.12099081D-01  0.70488047D-03  0.14533306D-02  0.27055097D-02
  0.44505381D-02  0.59763257D-02  0.56269359D-02  0.46240278D-03  0.23882148D-02
  0.63459339D-02 -0.85547622D-05 -0.19189437D-01 -0.17956585D-01 -0.13908069D-01
 -0.38462184D+00 -0.35991127D+00 -0.27876519D+00  0.61540156D-02  0.57586424D-02
  0.44602911D-02 -0.31031135D-03 -0.64824446D-02 -0.11742824D+00  0.19035515D-02
 -0.69448731D-02  0.73187747D-03 -0.91817083D-02 -0.51473935D-04 -0.13242958D-01
  0.14984114D-01 -0.17411557D-02  0.35262864D-02 -0.61973817D-03 -0.12515120D-02
  0.55878383D-02  0.10270459D-01  0.16785968D-01  0.22532368D-01  0.21862035D-01
  0.21786752D-02  0.91973254D-02  0.25105920D-01 -0.28411184D-04  0.72912916D+00
  0.71715709D+00  0.54972941D+00  0.24757132D-01  0.24350628D-01  0.18665724D-01
  0.48429753D-02  0.47634551D-02  0.36513777D-02 -0.12865705D-01  0.23630886D+00
  0.73715441D-02  0.18842615D-02 -0.86790555D-02  0.31759993D-01 -0.48618057D-03
  0.50561542D-03 -0.23240621D-02  0.33908139D-02 -0.10667519D-02  0.81304412D-02
 -0.13764749D-01  0.61153897D-03  0.12614317D-01  0.22754429D-01  0.33546026D-01
  0.18224230D-01  0.16549503D-02  0.85568310D-02  0.12392293D-01  0.18386203D-02
 -0.34662136D-01 -0.62525548D-01 -0.92179138D-01 -0.53953504D-01 -0.77062235D-02
 -0.20250599D-01 -0.26532695D-02 -0.27723920D-02  0.13343703D-01  0.24541130D-01
  0.40168572D-01  0.54132246D-01  0.53548321D-01  0.59600809D-02  0.23876545D-01
  0.63823092D-01 -0.91158388D-04 -0.15096551D+00 -0.15500318D+00 -0.11714267D+00
 -0.36197443D+00 -0.37165567D+00 -0.28087642D+00  0.34815423D-02  0.35746584D-02
  0.27015254D-02 -0.34378088D-01 -0.50392517D-01 -0.11749859D+00  0.12997463D-02
 -0.14773166D-01 -0.69023000D-02 -0.16240395D-01  0.10010435D-03  0.15211317D-01
 -0.10456155D-01 -0.47551626D-02  0.45323548D-01 -0.16943336D-03  0.10791154D-02
MO    8     MO 0.0        OCC NO =    2.0000000  ORB. ENERGY =   -0.469498
 -0.23081358D-01 -0.41635476D-01 -0.61381666D-01 -0.34711949D-01 -0.19167443D-02
 -0.97844672D-02  0.71091552D-02  0.22511065D-02  0.23120025D-01  0.43040072D-01
  0.70800514D-01  0.95073207D-01  0.89515008D-01  0.73560441D-02  0.37794110D-01
  0.10042603D+00 -0.13538130D-03 -0.19234827D+00 -0.17999059D+00 -0.13940967D+00
 -0.28398085D+00 -0.26573611D+00 -0.20582289D+00  0.70418736D-01  0.65894587D-01
  0.51037905D-01 -0.57609785D-01 -0.58354646D-01 -0.83700653D-01  0.23759912D-01
 -0.15558000D-01  0.26417727D-02 -0.14024511D-01  0.28782618D-02  0.89467643D-02
 -0.83856174D-02 -0.56114687D-03  0.10686393D-01  0.18663573D-03 -0.62413088D-02
 -0.12230240D-01 -0.22479209D-01 -0.36739866D-01 -0.49317153D-01 -0.47849978D-01
 -0.47685206D-02 -0.20807792D-01 -0.56798985D-01  0.64276730D-04 -0.21600491D+00
 -0.21245817D+00 -0.16285763D+00  0.61563635D+00  0.60552779D+00  0.46416111D+00
  0.13418693D+00  0.13198362D+00  0.10117069D+00  0.31961767D-01 -0.74156459D-01
  0.20113236D+00  0.44178132D-01  0.11228421D-01 -0.14854480D-01  0.34783801D-01
  0.79938399D-02  0.11349493D-01 -0.97744250D-02 -0.15750676D-02  0.35693906D-01
  0.11852143D-01 -0.11058850D-01 -0.32560169D-01 -0.58733900D-01 -0.86589250D-01
 -0.46709499D-01 -0.80381269D-02  0.78211640D-02 -0.79224805D-02 -0.35146856D-03
  0.12732830D-01  0.22968208D-01  0.33861193D-01  0.20566668D-01  0.44282913D-02
  0.37042456D-02  0.10018399D-01  0.26254521D-02 -0.45616115D-01 -0.83895080D-01
 -0.13731828D+00 -0.18505379D+00 -0.18305761D+00 -0.20374835D-01 -0.82337262D-01
 -0.22009125D+00  0.31435587D-03  0.54760892D+00  0.56225508D+00  0.42492071D+00
 -0.42033385D+00 -0.43157595D+00 -0.32616078D+00  0.12070629D+00  0.12393466D+00
  0.93662833D-01  0.12216826D+00  0.16823283D+00 -0.13972934D+00  0.39669088D-01
  0.54091836D-01  0.27805071D-01 -0.19580358D-01  0.61890612D-02 -0.18517526D-01
  0.20281618D-02  0.16489365D-01  0.56088083D-01 -0.14745503D-01  0.30939885D-02
MO    9     MO 0.0        OCC NO =    2.0000000  ORB. ENERGY =   -0.425429
 -0.24271074D-02 -0.43781554D-02 -0.64545552D-02 -0.67084420D-02 -0.25465286D-02
  0.20376114D-02  0.26513498D-02  0.12009734D-01 -0.46860647D-02 -0.87235444D-02
 -0.14350149D-01 -0.19269841D-01 -0.18143282D-01 -0.14909542D-02 -0.75693239D-02
 -0.20113111D-01  0.27113879D-04  0.13298155D+00  0.12443797D+00  0.96382018D-01
 -0.56644094D-02 -0.53004916D-02 -0.41054356D-02  0.42908269D+00  0.40151568D+00
  0.31098941D+00  0.13960034D-01  0.39414034D-01 -0.15432416D-02  0.14424432D+00
 -0.81773038D-03 -0.86670267D-03  0.26327001D-02  0.21559325D-01  0.88430973D-03
 -0.19175957D-02  0.10332860D-02 -0.38156906D-02  0.16146097D-01 -0.26119527D-01
 -0.52587645D-02 -0.96656207D-02 -0.15797425D-01 -0.21205412D-01 -0.20574556D-01
 -0.20503707D-02 -0.88850281D-02 -0.24253442D-01  0.27446476D-04 -0.43331339D-01
 -0.42619852D-01 -0.32669810D-01 -0.84538983D-01 -0.83150879D-01 -0.63738453D-01
  0.54230997D+00  0.53340541D+00  0.40887644D+00  0.13890603D-01 -0.13502825D-01
 -0.26240213D-01  0.18162597D+00  0.71564833D-02  0.53367611D-03 -0.73559918D-02
  0.33869974D-01  0.58351994D-02 -0.91042167D-03 -0.49247777D-02 -0.14119182D-03
  0.25701938D-01  0.26087799D-01 -0.14792240D-02 -0.26683091D-02 -0.39337910D-02
 -0.35715667D-02 -0.13849419D-02 -0.58116179D-03 -0.38025244D-02  0.11075098D-01
  0.19125141D-02  0.34499026D-02  0.50860658D-02  0.64439113D-02  0.11893065D-02
  0.48433232D-03 -0.79318527D-03  0.95856556D-02  0.18589967D-01  0.34189821D-01
  0.55961413D-01  0.75415101D-01  0.74601598D-01  0.83033707D-02  0.33559539D-01
  0.89706177D-01 -0.12812714D-03 -0.42274745D+00 -0.43405411D+00 -0.32803364D+00
  0.11378701D+00  0.11683032D+00  0.88293772D-01  0.83839555D+00  0.86081898D+00
  0.65055848D+00 -0.49931093D-01 -0.13074687D+00  0.36743753D-01  0.27773886D+00
 -0.23372569D-01 -0.22076027D-01  0.53656806D-02  0.44022475D-01  0.19838458D-01
 -0.76970725D-02 -0.12141386D-01 -0.14504579D-01 -0.87071648D-01  0.13761467D-01
MO   10     MO 0.0        OCC NO =    2.0000000  ORB. ENERGY =   -0.414205
  0.20807045D-01  0.37532941D-01  0.55333448D-01  0.41370879D-01  0.97024835D-02
 -0.11819751D-02 -0.13596343D-01  0.28716563D-02  0.16184629D-01  0.30129189D-01
  0.49562233D-01  0.66553761D-01  0.62662875D-01  0.51494256D-02  0.26160511D-01
  0.69513375D-01 -0.93708886D-04 -0.30988530D+00 -0.28997629D+00 -0.22459785D+00
  0.22553728D+00  0.21104733D+00  0.16346431D+00  0.11858726D+00  0.11096846D+00
  0.85949358D-01 -0.45633844D-01 -0.94108097D-01  0.65554889D-01  0.39939861D-01
  0.51251543D-03  0.17551273D-02  0.36363746D-02  0.64709403D-02 -0.14710619D-01
  0.11956880D-01  0.27537387D-02  0.99885356D-02  0.57441356D-02 -0.63132132D-02
 -0.11599160D-02 -0.21319282D-02 -0.34844090D-02 -0.46772389D-02 -0.45380920D-02
 -0.45224650D-03 -0.18745885D-02 -0.51170602D-02  0.57907356D-05  0.27642076D+00
  0.27188201D+00  0.20840837D+00 -0.24269270D+00 -0.23870776D+00 -0.18297898D+00
  0.11398363D+00  0.11211205D+00  0.85938342D-01  0.26222245D-02  0.90874163D-01
 -0.82259516D-01  0.38639102D-01 -0.12754259D-02  0.73994800D-02 -0.89766726D-02
  0.76958667D-02 -0.18337236D-01  0.19394311D-01 -0.10570747D-02 -0.20660002D-01
  0.11716068D-02  0.12690896D-01  0.20371232D-01  0.36746797D-01  0.54174464D-01
  0.38622919D-01  0.98999073D-02 -0.26170983D-02  0.72135952D-02  0.57827976D-02
 -0.17336738D-01 -0.31273002D-01 -0.46104648D-01 -0.36967612D-01 -0.82835974D-02
 -0.75108254D-02 -0.69178219D-02  0.24765038D-03 -0.43923892D-01 -0.80782820D-01
 -0.13222417D+00 -0.17818884D+00 -0.17626672D+00 -0.19618989D-01 -0.79338018D-01
 -0.21207414D+00  0.30290505D-03  0.11685253D+01  0.11997783D+01  0.90672481D+00
 -0.48939020D-01 -0.50247926D-01 -0.37974551D-01  0.28033893D+00  0.28783677D+00
  0.21753082D+00  0.11750427D+00  0.35890904D+00 -0.10171717D-01  0.92093950D-01
  0.60377335D-01  0.60032221D-01 -0.24596201D-02  0.14920865D-01 -0.53868889D-01
  0.28521103D-01  0.25347786D-01  0.63321952D-02 -0.29263977D-01  0.47033689D-02
MO   11     MO 0.0        OCC NO =    2.0000000  ORB. ENERGY =   -0.278717
 -0.10681803D-02 -0.19268449D-02 -0.28406773D-02 -0.89610025D-03 -0.18153585D-03
  0.67616903D-03 -0.11422315D-02 -0.77277681D-03  0.19690019D-02  0.36654798D-02
  0.60296798D-02  0.80968480D-02  0.76234876D-02  0.62647273D-03  0.32078353D-02
  0.85238191D-02 -0.11490704D-04  0.13939118D-01  0.13043580D-01  0.10102757D-01
  0.16699681D-01  0.15626787D-01  0.12103551D-01 -0.64718376D-01 -0.60560454D-01
 -0.46906413D-01 -0.43327271D-02  0.27784907D-02  0.18823858D-02 -0.21788882D-01
  0.20447266D-02  0.25145304D-02 -0.38732152D-03 -0.75251441D-02 -0.97116894D-04
 -0.43922801D-03  0.53634491D-03  0.81907180D-02 -0.67007682D-01 -0.15199575D-01
 -0.11526207D-01 -0.21185193D-01 -0.34624936D-01 -0.46478211D-01 -0.45095495D-01
 -0.44940207D-02 -0.19493003D-01 -0.53210010D-01  0.60215257D-04  0.22429563D-01
  0.22061277D-01  0.16910846D-01 -0.58625285D-01 -0.57662676D-01 -0.44200733D-01
  0.85969998D+00  0.84558397D+00  0.64817372D+00  0.30798929D-01  0.81279934D-02
 -0.19205129D-01  0.27697829D+00  0.15313640D-01 -0.33517156D-02 -0.38607974D-02
  0.74189342D-01  0.21926522D-02  0.18256091D-02 -0.40182614D-02 -0.14299160D-02
  0.41365466D-03  0.27128081D-03 -0.24604192D-02 -0.44382453D-02 -0.65431434D-02
  0.21274655D-02 -0.10200441D-02  0.13037152D-02 -0.84860140D-03  0.16767347D-01
 -0.43907494D-02 -0.79202856D-02 -0.11676589D-01 -0.10660276D-01 -0.31318679D-02
 -0.34045563D-02 -0.21484328D-02  0.18056818D-01  0.35785109D-03  0.65814342D-03
  0.10772398D-02  0.14517173D-02  0.14360576D-02  0.15983731D-03  0.58508402D-03
  0.15639562D-02 -0.22337954D-05  0.70404233D-01  0.72287239D-01  0.54630622D-01
  0.14990485D+00  0.15391415D+00  0.11631964D+00 -0.11137951D+01 -0.11435843D+01
 -0.86425658D+00 -0.35322861D-03  0.22169285D-01  0.49274671D-01 -0.35884295D+00
 -0.32986668D-02  0.47138957D-02  0.94926929D-02 -0.74152330D-01 -0.31167402D-02
  0.17857937D-02  0.13309465D-02 -0.83979185D-02  0.60120045D-01 -0.14034323D-01
MO   12     MO 0.0        OCC NO =    2.0000000  ORB. ENERGY =   -0.261985
 -0.21818796D-01 -0.39357995D-01 -0.58024059D-01 -0.54146014D-01 -0.18515437D-01
 -0.15226085D-03 -0.36417707D-02 -0.17319770D-03  0.41630990D-02  0.77499952D-02
  0.12748669D-01  0.17119323D-01  0.16118488D-01  0.13245635D-02  0.70229770D-02
  0.18661365D-01 -0.25156824D-04  0.22423136D-01  0.20982531D-01  0.16251781D-01
 -0.81980615D-01 -0.76713657D-01 -0.59417692D-01 -0.17247482D-03 -0.16139394D-03
 -0.12500585D-03 -0.83164322D-02  0.73986300D-02 -0.29814671D-01  0.19597728D-03
 -0.80462502D-02  0.10182920D-01  0.96257043D-02  0.30652856D-03  0.17563786D-01
 -0.16911243D-01 -0.65254365D-03  0.90130379D-01  0.55641942D-02  0.16205751D-02
 -0.24416569D-01 -0.44877708D-01 -0.73347821D-01 -0.98457237D-01 -0.95528155D-01
 -0.95199202D-02 -0.40796327D-01 -0.11136165D+00  0.12602272D-03  0.19180655D+00
  0.18865714D+00  0.14461320D+00  0.20743768D+00  0.20403162D+00  0.15639835D+00
 -0.10567478D+00 -0.10393964D+00 -0.79673863D-01  0.57818456D-01  0.61604079D-01
  0.57151606D-01 -0.34870178D-01  0.65287627D-01  0.11109311D-01  0.13155478D-01
 -0.10960142D-01  0.15990251D-02 -0.50498600D-02  0.34508349D-02 -0.31539902D-02
 -0.32930710D-02  0.72085016D-04 -0.17871980D-02 -0.32238502D-02 -0.47528050D-02
 -0.10807779D-01 -0.10433683D-01 -0.40293285D-03 -0.15326341D-02 -0.31176570D-02
 -0.80157325D-02 -0.14459238D-01 -0.21316728D-01 -0.26199084D-01 -0.50469324D-02
 -0.59492384D-02  0.33273301D-02 -0.31514015D-02 -0.25876045D-02 -0.47590043D-02
 -0.77894707D-02 -0.10497300D-01 -0.10384065D-01 -0.11557761D-02 -0.50380045D-02
 -0.13466816D-01  0.19234624D-04  0.29242363D+00  0.30024468D+00  0.22690801D+00
  0.15238072D+01  0.15645624D+01  0.11824081D+01  0.89855037D-01  0.92258268D-01
  0.69723600D-01  0.11285003D-01  0.93013129D-01  0.48751395D+00  0.28800576D-01
 -0.60007853D-02  0.22758356D-01  0.10036743D+00  0.63167341D-02 -0.10423715D-01
  0.91966113D-02  0.12271032D-02 -0.61252168D-01 -0.46056744D-02 -0.95469518D-03
END DATA
 TOTAL ENERGY =   -169.919297126601 THE VIRIAL(-V/T)=   2.00088587
