 Formamide B3LYP/6-311G** trial 5
GAUSSIAN             12 MOL ORBITALS    120 PRIMITIVES        6 NUCLEI
  H    1    (CENTRE  1)  -0.72169026  2.80405436 -0.05958364  CHARGE =  1.0
  C    2    (CENTRE  2)   0.00195585  0.75134097  0.08178100  CHARGE =  6.0
  N    3    (CENTRE  3)  -1.75395832 -1.05136399 -0.09310552  CHARGE =  7.0
  H    4    (CENTRE  4)  -1.31617162 -2.92938742  0.57980809  CHARGE =  1.0
  H    5    (CENTRE  5)  -3.38471488 -0.79463290  0.20250749  CHARGE =  1.0
  O    6    (CENTRE  6)   2.22838025  0.46926417 -0.02538301  CHARGE =  8.0
CENTRE ASSIGNMENTS    1  1  1  1  1  1  1  1  2  2  2  2  2  2  2  2  2  2  2  2
CENTRE ASSIGNMENTS    2  2  2  2  2  2  2  2  2  2  2  2  2  2  2  2  2  2  2  2
CENTRE ASSIGNMENTS    3  3  3  3  3  3  3  3  3  3  3  3  3  3  3  3  3  3  3  3
CENTRE ASSIGNMENTS    3  3  3  3  3  3  3  3  3  3  3  3  4  4  4  4  4  4  4  4
CENTRE ASSIGNMENTS    5  5  5  5  5  5  5  5  6  6  6  6  6  6  6  6  6  6  6  6
CENTRE ASSIGNMENTS    6  6  6  6  6  6  6  6  6  6  6  6  6  6  6  6  6  6  6  6
TYPE ASSIGNMENTS      1  1  1  1  1  2  3  4  1  1  1  1  1  1  1  1  1  2  2  2
TYPE ASSIGNMENTS      3  3  3  4  4  4  1  2  3  4  1  2  3  4  5  6  7  8  9 10
TYPE ASSIGNMENTS      1  1  1  1  1  1  1  1  1  2  2  2  3  3  3  4  4  4  1  2
TYPE ASSIGNMENTS      3  4  1  2  3  4  5  6  7  8  9 10  1  1  1  1  1  2  3  4
TYPE ASSIGNMENTS      1  1  1  1  1  2  3  4  1  1  1  1  1  1  1  1  1  2  2  2
TYPE ASSIGNMENTS      3  3  3  4  4  4  1  2  3  4  1  2  3  4  5  6  7  8  9 10
EXPONENTS  0.3386500D+02 0.5094790D+01 0.1158790D+01 0.3258400D+00 0.1027410D+00
EXPONENTS  0.7500000D+00 0.7500000D+00 0.7500000D+00 0.4563240D+04 0.6820240D+03
EXPONENTS  0.1549730D+03 0.4445530D+02 0.1302900D+02 0.1827730D+01 0.2096420D+02
EXPONENTS  0.4803310D+01 0.1459330D+01 0.2096420D+02 0.4803310D+01 0.1459330D+01
EXPONENTS  0.2096420D+02 0.4803310D+01 0.1459330D+01 0.2096420D+02 0.4803310D+01
EXPONENTS  0.1459330D+01 0.4834560D+00 0.4834560D+00 0.4834560D+00 0.4834560D+00
EXPONENTS  0.1455850D+00 0.1455850D+00 0.1455850D+00 0.1455850D+00 0.6260000D+00
EXPONENTS  0.6260000D+00 0.6260000D+00 0.6260000D+00 0.6260000D+00 0.6260000D+00
EXPONENTS  0.6293480D+04 0.9490440D+03 0.2187760D+03 0.6369160D+02 0.1882820D+02
EXPONENTS  0.2720230D+01 0.3063310D+02 0.7026140D+01 0.2112050D+01 0.3063310D+02
EXPONENTS  0.7026140D+01 0.2112050D+01 0.3063310D+02 0.7026140D+01 0.2112050D+01
EXPONENTS  0.3063310D+02 0.7026140D+01 0.2112050D+01 0.6840090D+00 0.6840090D+00
EXPONENTS  0.6840090D+00 0.6840090D+00 0.2008780D+00 0.2008780D+00 0.2008780D+00
EXPONENTS  0.2008780D+00 0.9130000D+00 0.9130000D+00 0.9130000D+00 0.9130000D+00
EXPONENTS  0.9130000D+00 0.9130000D+00 0.3386500D+02 0.5094790D+01 0.1158790D+01
EXPONENTS  0.3258400D+00 0.1027410D+00 0.7500000D+00 0.7500000D+00 0.7500000D+00
EXPONENTS  0.3386500D+02 0.5094790D+01 0.1158790D+01 0.3258400D+00 0.1027410D+00
EXPONENTS  0.7500000D+00 0.7500000D+00 0.7500000D+00 0.8588500D+04 0.1297230D+04
EXPONENTS  0.2992960D+03 0.8737710D+02 0.2567890D+02 0.3740040D+01 0.4211750D+02
EXPONENTS  0.9628370D+01 0.2853320D+01 0.4211750D+02 0.9628370D+01 0.2853320D+01
EXPONENTS  0.4211750D+02 0.9628370D+01 0.2853320D+01 0.4211750D+02 0.9628370D+01
EXPONENTS  0.2853320D+01 0.9056610D+00 0.9056610D+00 0.9056610D+00 0.9056610D+00
EXPONENTS  0.2556110D+00 0.2556110D+00 0.2556110D+00 0.2556110D+00 0.1292000D+01
EXPONENTS  0.1292000D+01 0.1292000D+01 0.1292000D+01 0.1292000D+01 0.1292000D+01
MO    1     MO 0.0        OCC NO =    2.0000000  ORB. ENERGY =  -19.086896
 -0.62555858D-04 -0.11284184D-03 -0.16635862D-03 -0.37528614D-04  0.46692979D-04
 -0.44751398D-03  0.26686374D-03 -0.20922616D-06 -0.30090163D-04 -0.56015631D-04
 -0.92145187D-04 -0.12373552D-03 -0.11650166D-03 -0.95737167D-05  0.12665815D-03
  0.33655441D-03 -0.45369886D-06  0.10747575D-02  0.10057082D-02  0.77895987D-03
 -0.14323206D-03 -0.13402992D-03 -0.10381135D-03  0.69417647D-05  0.64957815D-05
  0.50312338D-05  0.55751135D-04 -0.96428901D-03  0.14208671D-03 -0.55842055D-05
  0.55572343D-03  0.46424218D-03 -0.13796800D-03 -0.17423126D-04 -0.97659682D-03
  0.80225482D-03  0.17434200D-03  0.53519750D-03  0.13298258D-03  0.20425844D-04
 -0.40619116D-05 -0.74658024D-05 -0.12202057D-04 -0.16379230D-04 -0.15891951D-04
 -0.15837227D-05  0.46695452D-04  0.12746448D-03 -0.14424553D-06  0.47901439D-03
  0.47114912D-03  0.36115453D-03  0.22420373D-03  0.22052237D-03  0.16903916D-03
  0.87387466D-05  0.85952590D-05  0.65886076D-05 -0.86330602D-04 -0.52607667D-03
 -0.29115812D-03 -0.11179387D-04  0.94705118D-05 -0.19952722D-03  0.19293962D-03
  0.68725101D-05 -0.19119083D-03  0.18720788D-03  0.39829451D-05 -0.62761027D-03
 -0.15847018D-03  0.15262019D-03 -0.18230614D-04 -0.32885426D-04 -0.48481786D-04
  0.17375958D-03 -0.25647911D-04  0.10802013D-04 -0.71459026D-05 -0.57101703D-04
 -0.12341423D-04 -0.22262167D-04 -0.32820302D-04 -0.22386096D-03  0.41791727D-04
 -0.11103952D-03 -0.12397573D-04  0.67337884D-04  0.66429195D+00  0.12217355D+01
  0.19997193D+01  0.26948753D+01  0.26658057D+01  0.29671178D+00  0.63039792D+00
  0.16850823D+01 -0.24067996D-02 -0.63932291D-02 -0.65642201D-02 -0.49608677D-02
  0.32875295D-03  0.33754567D-03  0.25509799D-03  0.46124928D-03  0.47358569D-03
  0.35790938D-03  0.90021611D-02 -0.15206957D-02  0.23281901D-03  0.82833901D-04
 -0.21105883D-02  0.44934058D-03 -0.48903980D-04 -0.28561785D-04  0.11659677D-02
 -0.61714882D-03 -0.54881887D-03 -0.40071339D-03 -0.17701254D-03  0.18706481D-04
MO    2     MO 0.0        OCC NO =    2.0000000  ORB. ENERGY =  -14.337143
 -0.46365283D-04 -0.83636356D-04 -0.12330203D-03 -0.81183729D-04  0.60334546D-04
  0.72758220D-04  0.41500435D-03  0.20318665D-04 -0.47203910D-05 -0.87874460D-05
 -0.14455266D-04 -0.19410996D-04 -0.18276185D-04 -0.15018758D-05  0.96247776D-04
  0.25574836D-03 -0.34476666D-06 -0.10996406D-02 -0.10289927D-02 -0.79699462D-03
 -0.10495027D-02 -0.98207591D-03 -0.76065576D-03 -0.51865716D-04 -0.48533531D-04
 -0.37591096D-04  0.87199284D-05  0.91652441D-03  0.79933276D-03  0.28111008D-04
  0.60047548D-03 -0.13339574D-03 -0.32725138D-03 -0.47089950D-04  0.32376498D-04
 -0.18379462D-03  0.15141812D-03 -0.17602303D-02 -0.18781632D-03 -0.12594820D-03
  0.55278467D+00  0.10160194D+01  0.16605753D+01  0.22290458D+01  0.21627322D+01
  0.21552848D+00  0.48352482D+00  0.13198767D+01 -0.14936421D-02 -0.30785792D-03
 -0.30280299D-03 -0.23211053D-03 -0.24063818D-03 -0.23668698D-03 -0.18142998D-03
  0.23687521D-02  0.23298579D-02  0.17859287D-02  0.91186385D-02 -0.15175728D-02
  0.85338977D-03  0.61905921D-03 -0.10971163D-02 -0.52970883D-03 -0.25529000D-03
  0.53378536D-04  0.19758868D-02 -0.30147533D-03 -0.16744114D-02  0.36043800D-03
 -0.93808106D-03 -0.32789095D-03  0.31620898D-04  0.57039588D-04  0.84091388D-04
 -0.29509983D-03  0.18922464D-04  0.46821391D-03 -0.89515282D-03  0.30125637D-03
 -0.23291574D-03 -0.42014676D-03 -0.61940706D-03 -0.14918276D-02  0.11393946D-03
 -0.31422849D-02  0.73806572D-03  0.60287588D-03  0.50415380D-05  0.92721668D-05
  0.15176551D-04  0.20452327D-04  0.20231708D-04  0.22518468D-05  0.60529608D-04
  0.16179840D-03 -0.23109632D-06 -0.51299114D-03 -0.52671142D-03 -0.39805881D-03
 -0.54001520D-04 -0.55445826D-04 -0.41902831D-04  0.21593195D-04  0.22170719D-04
  0.16755381D-04 -0.15530052D-03  0.66321222D-03  0.29104165D-04 -0.31184874D-04
 -0.26902289D-03  0.11001719D-03  0.12756776D-03  0.20960270D-04 -0.53336593D-03
  0.46826133D-03  0.65104594D-04 -0.51209933D-03 -0.24778615D-04  0.15971826D-03
MO    3     MO 0.0        OCC NO =    2.0000000  ORB. ENERGY =  -10.273280
  0.79136682D-04  0.14275128D-03  0.21045302D-03 -0.68394094D-03  0.25671786D-03
 -0.57129766D-03  0.14708460D-02 -0.88334378D-04  0.43808021D+00  0.81552698D+00
  0.13415342D+01  0.18014553D+01  0.16961381D+01  0.13938296D+00  0.37100960D+00
  0.98584197D+00 -0.13289838D-02 -0.58547637D-03 -0.54786163D-03 -0.42434001D-03
 -0.13155101D-02 -0.12309933D-02 -0.95345192D-03  0.13075406D-03  0.12235358D-03
  0.94767578D-04  0.70979905D-02  0.91542051D-03 -0.84196601D-04 -0.25660621D-03
  0.24633160D-03  0.19311950D-03 -0.24436161D-03 -0.13630545D-04  0.15902563D-02
  0.67126206D-04 -0.16573825D-02  0.30992223D-03 -0.52264889D-04  0.27095751D-04
 -0.64894892D-04 -0.11927695D-03 -0.19494544D-03 -0.26168180D-03 -0.25389682D-03
 -0.25302252D-04 -0.75002661D-05 -0.20473460D-04  0.23168849D-07  0.15480825D-02
  0.15226635D-02  0.11671821D-02  0.18238327D-02  0.17938859D-02  0.13750848D-02
  0.14030473D-03  0.13800097D-03  0.10578323D-03  0.22207805D-03 -0.11701168D-02
 -0.12994166D-02 -0.81073320D-04 -0.68547769D-03 -0.36629732D-03 -0.17073202D-03
 -0.27537676D-04 -0.38714692D-04 -0.82006538D-03  0.85878007D-03 -0.22001934D-02
 -0.41816951D-03 -0.38488195D-03 -0.19598508D-04 -0.35352913D-04 -0.52119513D-04
  0.70836458D-04 -0.31311563D-05  0.23895046D-03  0.21816725D-04  0.26421292D-04
 -0.56730734D-04 -0.10233415D-03 -0.15086751D-03 -0.13970806D-03  0.57208319D-05
 -0.15179137D-03  0.38309918D-03  0.11922983D-03 -0.13462909D-03 -0.24760368D-03
 -0.40527419D-03 -0.54615838D-03 -0.54026696D-03 -0.60133255D-04 -0.81190587D-04
 -0.21702614D-03  0.30997798D-06 -0.32223991D-02 -0.33085842D-02 -0.25004415D-02
  0.62233709D-03  0.63898190D-03  0.48290651D-03  0.15207103D-03  0.15613827D-03
  0.11800050D-03  0.18743477D-03  0.24758497D-02 -0.50151616D-03 -0.12748715D-03
 -0.16255601D-02  0.78984659D-03 -0.59594565D-04 -0.42075773D-04 -0.26550355D-02
  0.10855510D-02  0.15694845D-02  0.15021395D-02  0.48058220D-03 -0.79055322D-04
MO    4     MO 0.0        OCC NO =    2.0000000  ORB. ENERGY =   -1.054639
  0.48706785D-02  0.87860091D-02  0.12952893D-01  0.55840047D-02 -0.54924025D-03
  0.37173096D-02 -0.46890019D-02  0.56545070D-04 -0.57497152D-01 -0.10703628D+00
 -0.17607368D+00 -0.23643740D+00 -0.22261473D+00 -0.18293734D-01 -0.89661544D-01
 -0.23824751D+00  0.32117429D-03  0.19390782D+00  0.18144994D+00  0.14053999D+00
 -0.64312809D-01 -0.60180944D-01 -0.46612467D-01 -0.14177692D-01 -0.13266827D-01
 -0.10275670D-01  0.12294127D+00  0.50342776D-01 -0.20901473D-01 -0.35546326D-02
  0.96709521D-02 -0.99776452D-03  0.54287545D-03  0.14901383D-03  0.19807866D-01
 -0.78673799D-02 -0.11940486D-01 -0.15704511D-02 -0.20286963D-02  0.40931250D-03
 -0.33965788D-01 -0.62429192D-01 -0.10203385D+00 -0.13696345D+00 -0.13288882D+00
 -0.13243121D-01 -0.55669958D-01 -0.15196217D+00  0.17196841D-03  0.53640812D-01
  0.52760046D-01  0.40442672D-01  0.47934398D-01  0.47147330D-01  0.36140302D-01
  0.21434375D-01  0.21082429D-01  0.16160520D-01  0.78219412D-01  0.20655151D-01
  0.15583728D-01  0.70226772D-02  0.16922666D-01  0.23510435D-02  0.17422567D-03
  0.52227727D-03  0.67827238D-02 -0.17970524D-02 -0.49856714D-02  0.91219760D-02
  0.10894847D-02 -0.13420272D-02  0.44388444D-02  0.80070420D-02  0.11804490D-01
  0.43516065D-02  0.22172836D-05 -0.31257084D-03  0.52244637D-02 -0.12687055D-02
  0.57483912D-02  0.10369278D-01  0.15287048D-01  0.66738412D-02 -0.31258582D-03
  0.54293452D-02  0.49845643D-03 -0.55097198D-03 -0.11813160D+00 -0.21726225D+00
 -0.35561176D+00 -0.47923195D+00 -0.47406247D+00 -0.52764506D-01 -0.21015175D+00
 -0.56174519D+00  0.80233948D-03 -0.42328413D+00 -0.43460514D+00 -0.32845007D+00
  0.39062175D-01  0.40106918D-01  0.30310549D-01  0.19983986D-01  0.20518471D-01
  0.15506704D-01  0.29600785D+00 -0.13700010D+00  0.11790310D-01  0.63737297D-02
  0.75841571D-01 -0.10384531D-01  0.62264001D-03  0.51873500D-03  0.42453393D-01
 -0.24220094D-01 -0.18233299D-01 -0.11606835D-01 -0.60249661D-02  0.15118115D-03
MO    5     MO 0.0        OCC NO =    2.0000000  ORB. ENERGY =   -0.936782
  0.20235356D-02  0.36501695D-02  0.53813120D-02  0.32186929D-02 -0.43167989D-03
 -0.20496375D-02 -0.39914429D-02  0.19891724D-03 -0.13554568D-01 -0.25233087D-01
 -0.41508190D-01 -0.55738533D-01 -0.52479930D-01 -0.43126252D-02 -0.21896991D-01
 -0.58184405D-01  0.78436643D-04 -0.23769282D+00 -0.22242192D+00 -0.17227437D+00
 -0.95397077D-01 -0.89268160D-01 -0.69141640D-01 -0.28471133D-03 -0.26641966D-03
 -0.20635232D-03  0.30951029D-01 -0.69665793D-01 -0.31046991D-01  0.20109978D-03
  0.28552103D-02 -0.11137765D-02  0.25835317D-03  0.86527302D-04 -0.39601258D-02
  0.66917706D-02 -0.27316448D-02  0.23390054D-01  0.16995112D-02  0.23779982D-03
 -0.10510528D+00 -0.19318374D+00 -0.31573819D+00 -0.42382595D+00 -0.41121722D+00
 -0.40980119D-01 -0.17302755D+00 -0.47231294D+00  0.53449427D-03 -0.54270449D-01
 -0.53379345D-01 -0.40917390D-01  0.78231977D-01  0.76947432D-01  0.58983265D-01
  0.86016368D-01  0.84604006D-01  0.64852333D-01  0.24342652D+00 -0.13043295D-01
  0.25193852D-01  0.28677011D-01  0.63219186D-01 -0.59780025D-03  0.31883760D-02
  0.26028478D-02  0.90078023D-02  0.58990485D-02 -0.14906851D-01  0.95887551D-02
 -0.36697279D-02 -0.16323806D-02  0.15903337D-01  0.28687351D-01  0.42292718D-01
  0.19391936D-01  0.12542480D-03 -0.45649838D-02  0.15896888D-01 -0.43462900D-02
  0.27602735D-01  0.49791395D-01  0.73405641D-01  0.26468280D-01  0.39923458D-03
  0.19005317D-01 -0.23102772D-02 -0.17898616D-02  0.53293970D-01  0.98015841D-01
  0.16043094D+00  0.21620103D+00  0.21386887D+00  0.23804216D-01  0.95231498D-01
  0.25455813D+00 -0.36358484D-03  0.13580722D+00  0.13943948D+00  0.10538050D+00
 -0.53382100D-01 -0.54809839D-01 -0.41422188D-01 -0.99812001D-02 -0.10248154D-01
 -0.77449772D-02 -0.13578354D+00  0.43727485D-01 -0.18378483D-01 -0.33403798D-02
 -0.36883757D-01  0.27467597D-02 -0.18698509D-02 -0.32091081D-03 -0.13673439D-01
  0.72786945D-02  0.63947443D-02  0.18545986D-01  0.33893992D-02 -0.99346257D-03
MO    6     MO 0.0        OCC NO =    2.0000000  ORB. ENERGY =   -0.638988
  0.16094393D-01  0.29031990D-01  0.42800805D-01  0.24797949D-01  0.99834995D-03
  0.40300738D-03 -0.11876213D-01  0.61925413D-04 -0.55169713D-01 -0.10270354D+00
 -0.16894636D+00 -0.22686661D+00 -0.21360346D+00 -0.17553219D-01 -0.89130886D-01
 -0.23683745D+00  0.31927343D-03 -0.24781811D+00 -0.23189670D+00 -0.17961295D+00
 -0.60490852D-01 -0.56604534D-01 -0.43842399D-01 -0.29343131D-01 -0.27457941D-01
 -0.21267237D-01  0.13253891D+00 -0.73848568D-01 -0.19137306D-01 -0.95218439D-02
  0.27139056D-01 -0.71847050D-02  0.75565924D-03  0.80839607D-04 -0.33090148D-02
  0.81309906D-02 -0.48219759D-02  0.11562065D-01  0.35784273D-02  0.28747921D-02
  0.17708898D-01  0.32548994D-01  0.53197855D-01  0.71409262D-01  0.69284852D-01
  0.69046268D-02  0.29316224D-01  0.80024435D-01 -0.90559876D-04  0.58047544D+00
  0.57094421D+00  0.43765143D+00  0.45110775D+00  0.44370070D+00  0.34011422D+00
 -0.86172960D-01 -0.84758027D-01 -0.64970396D-01 -0.41415535D-01  0.18564600D+00
  0.14931023D+00 -0.27863618D-01 -0.15109995D-01  0.21025515D-01  0.17375278D-01
 -0.36495642D-02 -0.11808678D-01  0.12000932D-01 -0.19225404D-03  0.36877531D-01
  0.17269514D-01  0.14498518D-01 -0.17181754D-01 -0.30993433D-01 -0.45692489D-01
 -0.24478820D-01 -0.26232806D-02  0.11878523D-01 -0.77576595D-02  0.33442434D-02
 -0.30502781D-01 -0.55022665D-01 -0.81117911D-01 -0.37346827D-01 -0.42490077D-02
 -0.86622256D-02  0.12564303D-01  0.11929308D-02  0.43563103D-01  0.80119274D-01
  0.13113809D+00  0.17672521D+00  0.17481887D+00  0.19457839D-01  0.78599555D-01
  0.21010019D+00 -0.30008566D-03 -0.14225939D+00 -0.14606421D+00 -0.11038710D+00
 -0.24050267D-01 -0.24693507D-01 -0.18661961D-01 -0.21369068D-01 -0.21940597D-01
 -0.16581467D-01 -0.11563022D+00 -0.43049355D-01 -0.86192644D-02 -0.75309398D-02
 -0.40909117D-01 -0.70795490D-02 -0.65652910D-03 -0.11060962D-02  0.40939320D-02
 -0.14531300D-02 -0.26408020D-02  0.76431228D-02  0.51872148D-02 -0.89354733D-03
MO    7     MO 0.0        OCC NO =    2.0000000  ORB. ENERGY =   -0.566660
 -0.23839162D-01 -0.43002447D-01 -0.63396942D-01 -0.37184541D-01 -0.38370114D-02
 -0.47830632D-02  0.14193724D-01 -0.14350573D-02  0.15141020D-01  0.28186414D-01
  0.46366387D-01  0.62262276D-01  0.58622280D-01  0.48173830D-02  0.24773081D-01
  0.65826714D-01 -0.88739009D-04  0.45724411D-01  0.42786783D-01  0.33140017D-01
 -0.33380033D+00 -0.31235487D+00 -0.24193092D+00  0.88282736D-02  0.82610890D-02
  0.63985327D-02 -0.35023626D-01  0.15212422D-01 -0.10677064D+00  0.29888635D-02
 -0.13486172D-01  0.41025849D-02 -0.97681006D-02  0.32206604D-03 -0.12329006D-01
  0.11764432D-01  0.56457475D-03  0.19617537D-03 -0.26525179D-03  0.16082640D-02
 -0.11818216D-01 -0.21721907D-01 -0.35502137D-01 -0.47655707D-01 -0.46237960D-01
 -0.46078739D-02 -0.20134489D-01 -0.54961071D-01  0.62196850D-04  0.63038724D+00
  0.62003647D+00  0.47528260D+00 -0.35112531D+00 -0.34535994D+00 -0.26473212D+00
  0.39111788D-01  0.38469584D-01  0.29488465D-01  0.31320784D-01  0.20330455D+00
 -0.11549220D+00  0.14614941D-01  0.16387806D-01  0.25137201D-01 -0.15811929D-01
  0.22208146D-02 -0.79712474D-02  0.57961238D-02  0.21751237D-02  0.12730721D-01
  0.22006808D-01 -0.14708660D-01  0.25500030D-01  0.45998416D-01  0.67813789D-01
  0.39070627D-01  0.52560501D-02  0.46713500D-02  0.15903099D-01 -0.55006003D-02
 -0.31257495D-01 -0.56384062D-01 -0.83124969D-01 -0.42705959D-01 -0.55399907D-02
 -0.10845008D-01 -0.38127168D-02  0.40627481D-02 -0.10806248D-02 -0.19874359D-02
 -0.32530068D-02 -0.43838393D-02 -0.43365507D-02 -0.48267047D-03 -0.22694927D-02
 -0.60664575D-02  0.86647085D-05 -0.29652021D-01 -0.30445083D-01 -0.23008678D-01
 -0.34178677D+00 -0.35092808D+00 -0.26521167D+00  0.11016935D-01  0.11311590D-01
  0.85486626D-02  0.51443605D-02 -0.13590782D-01 -0.11122551D+00  0.39713001D-02
 -0.13908279D-02 -0.63682334D-03 -0.15085613D-01  0.55354898D-03  0.76282479D-02
 -0.55811315D-02 -0.20471164D-02  0.42275600D-01 -0.29803913D-02 -0.18152722D-02
MO    8     MO 0.0        OCC NO =    2.0000000  ORB. ENERGY =   -0.479686
 -0.24851768D-01 -0.44829044D-01 -0.66089827D-01 -0.41480082D-01 -0.40832698D-02
 -0.67185434D-02  0.10216002D-01 -0.25278151D-02  0.24069322D-01  0.44807277D-01
  0.73707550D-01  0.98976869D-01  0.93190453D-01  0.76580799D-02  0.39419542D-01
  0.10474510D+00 -0.14120372D-03 -0.17399631D+00 -0.16281768D+00 -0.12610858D+00
 -0.31215558D+00 -0.29210071D+00 -0.22624329D+00 -0.58976899D-01 -0.55187846D-01
 -0.42745120D-01 -0.60830012D-01 -0.52051446D-01 -0.96926890D-01 -0.20120984D-01
 -0.16245116D-01  0.14325033D-02 -0.13201723D-01 -0.23701580D-02  0.81766020D-02
 -0.77235888D-02 -0.45301320D-03  0.44261536D-02  0.10368979D-02  0.72094676D-02
 -0.72874817D-02 -0.13394407D-01 -0.21891728D-01 -0.29386000D-01 -0.28511773D-01
 -0.28413592D-02 -0.12389633D-01 -0.33819955D-01  0.38272447D-04 -0.82760546D-01
 -0.81401644D-01 -0.62397595D-01  0.58052628D+00  0.57099422D+00  0.43768976D+00
 -0.13763331D+00 -0.13537341D+00 -0.10376910D+00  0.19875964D-01 -0.25634827D-01
  0.19164317D+00 -0.45986185D-01  0.24305842D-02 -0.46707850D-02  0.30020790D-01
 -0.83969223D-02  0.14383485D-01 -0.95162766D-02 -0.48672087D-02  0.15436063D-01
 -0.69464447D-02  0.20682578D-01 -0.30369144D-01 -0.54781603D-01 -0.80762522D-01
 -0.48744823D-01 -0.86175890D-02  0.60659678D-02 -0.10897539D-01  0.36158165D-02
  0.11547758D-01  0.20830509D-01  0.30709660D-01  0.18413082D-01  0.29267970D-02
  0.60969006D-02  0.11514287D-01 -0.39459273D-02 -0.44480784D-01 -0.81807031D-01
 -0.13390059D+00 -0.18044802D+00 -0.17850153D+00 -0.19867730D-01 -0.80187790D-01
 -0.21434561D+00  0.30614939D-03  0.54487086D+00  0.55944378D+00  0.42279609D+00
 -0.45961556D+00 -0.47190827D+00 -0.35664168D+00 -0.11584543D+00 -0.11894380D+00
 -0.89891018D-01  0.11833327D+00  0.16887699D+00 -0.15260899D+00 -0.38035585D-01
  0.54790007D-01  0.27122476D-01 -0.21659190D-01 -0.59139362D-02 -0.21485228D-01
  0.57321356D-02  0.15753092D-01  0.58175876D-01  0.15326420D-01 -0.40431868D-02
MO    9     MO 0.0        OCC NO =    2.0000000  ORB. ENERGY =   -0.420079
  0.51439816D-02  0.92790089D-02  0.13679705D-01  0.10301701D-01  0.35958557D-02
 -0.30231082D-02 -0.26846622D-02  0.89214513D-02  0.23910893D-02  0.44512347D-02
  0.73222393D-02  0.98325384D-02  0.92577056D-02  0.76076730D-03  0.37363312D-02
  0.99281315D-02 -0.13383815D-04 -0.18577098D+00 -0.17383586D+00 -0.13464260D+00
  0.36678893D-01  0.34322407D-01  0.26584031D-01  0.40561458D+00  0.37955531D+00
  0.29398026D+00 -0.95253175D-02 -0.55819406D-01  0.13442142D-01  0.13607544D+00
  0.52158110D-02 -0.25741294D-04 -0.19992886D-03  0.21267582D-01 -0.16114454D-02
  0.40322422D-02 -0.24207968D-02  0.63106914D-02  0.17379752D-01 -0.19907373D-01
  0.91172324D-02  0.16757493D-01  0.27388333D-01  0.36764277D-01  0.35670548D-01
  0.35547715D-02  0.15449189D-01  0.42171617D-01 -0.47723629D-04  0.88309782D-01
  0.86859763D-01  0.66581460D-01  0.75452500D-01  0.74213593D-01  0.56887668D-01
  0.50934085D+00  0.50097763D+00  0.38401927D+00 -0.24447560D-01  0.26477323D-01
  0.22326532D-01  0.17136069D+00 -0.70966984D-02  0.18827587D-02  0.85572835D-02
  0.32533060D-01 -0.10166057D-01  0.19449324D-02  0.82211242D-02 -0.41985838D-03
  0.21299757D-01  0.25698841D-01  0.39952029D-02  0.72067759D-02  0.10624687D-01
  0.73710803D-02  0.23275771D-02  0.12802225D-02  0.52643894D-02  0.80280540D-02
 -0.31569653D-02 -0.56947149D-02 -0.83955108D-02 -0.11168483D-01 -0.16799089D-02
  0.30025074D-03  0.20397996D-02  0.12535562D-01 -0.22472491D-01 -0.41330381D-01
 -0.67648980D-01 -0.91165581D-01 -0.90182177D-01 -0.10037534D-01 -0.40514072D-01
 -0.10829596D+00  0.15467889D-03  0.61561325D+00  0.63207822D+00  0.47768911D+00
 -0.34961296D-01 -0.35896359D-01 -0.27128445D-01  0.79021600D+00  0.81135084D+00
  0.61317325D+00  0.59877029D-01  0.19119920D+00 -0.10971701D-01  0.26304604D+00
  0.30489856D-01  0.32095102D-01 -0.14622582D-02  0.41740672D-01 -0.30605802D-01
  0.12324347D-01  0.18281454D-01  0.70284773D-02 -0.79156217D-01  0.76189416D-02
MO   10     MO 0.0        OCC NO =    2.0000000  ORB. ENERGY =   -0.417169
  0.19724836D-01  0.35580791D-01  0.52455464D-01  0.34687889D-01  0.94693143D-02
 -0.36306213D-02 -0.90461500D-02 -0.26912898D-02  0.15062892D-01  0.28040971D-01
  0.46127133D-01  0.61940999D-01  0.58319785D-01  0.47925250D-02  0.24262340D-01
  0.64469581D-01 -0.86909499D-04 -0.30551545D+00 -0.28588719D+00 -0.22143068D+00
  0.21881896D+00  0.20476063D+00  0.15859502D+00 -0.17391907D+00 -0.16274540D+00
 -0.12605260D+00 -0.42571606D-01 -0.95881303D-01  0.71857755D-01 -0.58895092D-01
  0.22083538D-02 -0.34736889D-03  0.71575293D-02 -0.97306272D-02 -0.15263895D-01
  0.12603828D-01  0.26600673D-02  0.12499518D-01 -0.81626502D-02  0.61629688D-02
 -0.69789517D-02 -0.12827328D-01 -0.20964899D-01 -0.28141886D-01 -0.27304671D-01
 -0.27210646D-02 -0.11793632D-01 -0.32193052D-01  0.36431358D-04  0.22998173D+00
  0.22620550D+00  0.17339551D+00 -0.21186327D+00 -0.20838454D+00 -0.15973503D+00
 -0.17001599D+00 -0.16722438D+00 -0.12818414D+00  0.17377746D-01  0.72406107D-01
 -0.71663674D-01 -0.56869824D-01  0.13271375D-01  0.63470652D-02 -0.70817442D-02
 -0.10837006D-01 -0.17898685D-01  0.19812103D-01 -0.19134175D-02 -0.13910492D-02
 -0.15098874D-02 -0.18838597D-01  0.15479661D-01  0.27923099D-01  0.41166009D-01
  0.31161600D-01  0.75576389D-02  0.33817609D-03  0.53518025D-02 -0.71922780D-02
 -0.15774012D-01 -0.28454066D-01 -0.41948794D-01 -0.29801500D-01 -0.55196044D-02
 -0.49970091D-02 -0.30002592D-02 -0.16905098D-02 -0.41532337D-01 -0.76384382D-01
 -0.12502487D+00 -0.16848687D+00 -0.16666940D+00 -0.18550780D-01 -0.75058520D-01
 -0.20063484D+00  0.28656633D-03  0.11101026D+01  0.11397931D+01  0.86139137D+00
  0.17534751D+00  0.18003729D+00  0.13606204D+00 -0.44433992D+00 -0.45622408D+00
 -0.34478845D+00  0.11121216D+00  0.33983853D+00  0.62109807D-01 -0.14596921D+00
  0.58678512D-01  0.57053969D-01  0.89659137D-02 -0.23621432D-01 -0.48624847D-01
  0.26414275D-01  0.22210571D-01 -0.16575941D-01  0.46836669D-01 -0.33338954D-02
MO   11     MO 0.0        OCC NO =    2.0000000  ORB. ENERGY =   -0.290734
  0.90472982D-03  0.16320035D-02  0.24060034D-02  0.71507575D-03 -0.54295851D-03
 -0.30896520D-03  0.33297400D-03 -0.10523924D-02 -0.31692920D-02 -0.58999313D-02
 -0.97053315D-02 -0.13032631D-01 -0.12270714D-01 -0.10083662D-02 -0.51541644D-02
 -0.13695580D-01  0.18462598D-04 -0.23649336D-01 -0.22129952D-01 -0.17140503D-01
 -0.27443240D-01 -0.25680111D-01 -0.19890239D-01 -0.81536596D-01 -0.76298165D-01
 -0.59095878D-01  0.74253896D-02 -0.50527193D-02 -0.62292905D-02 -0.27120615D-01
 -0.10285080D-02 -0.36376285D-02  0.19095530D-03 -0.78200224D-02  0.47154919D-03
 -0.47062199D-03 -0.92719271D-06 -0.79094923D-02 -0.63778606D-01 -0.16218126D-01
  0.18497964D-01  0.33999297D-01  0.55568221D-01  0.74591084D-01  0.72372016D-01
  0.72122801D-02  0.31351188D-01  0.85579271D-01 -0.96846022D-04 -0.32184249D-01
 -0.31655793D-01 -0.24265424D-01  0.98141249D-01  0.96529800D-01  0.73993928D-01
  0.85750960D+00  0.84342955D+00  0.64652227D+00 -0.49277705D-01 -0.99051150D-02
  0.31901616D-01  0.27500412D+00 -0.27078972D-01  0.22346924D-02  0.59032342D-02
  0.72921644D-01 -0.56886685D-02 -0.27293665D-02  0.84180350D-02  0.18397001D-02
 -0.65516142D-02  0.38572460D-02  0.53503813D-02  0.96513245D-02  0.14228596D-01
  0.24591017D-02  0.24213980D-02 -0.25346567D-02  0.34223844D-02  0.16745853D-01
  0.59110491D-02  0.10662689D-01  0.15719614D-01  0.10151771D-01  0.21903043D-02
  0.56653526D-02  0.17300939D-02  0.21599743D-01 -0.48591594D-03 -0.89367444D-03
 -0.14627536D-02 -0.19712460D-02 -0.19499822D-02 -0.21703858D-03 -0.76946573D-03
 -0.20568169D-02  0.29377473D-05 -0.10669142D+00 -0.10954496D+00 -0.82787905D-01
 -0.18359763D+00 -0.18850807D+00 -0.14246378D+00 -0.10650618D+01 -0.10935476D+01
 -0.82644166D+00  0.33316542D-03 -0.33114387D-01 -0.60676758D-01 -0.34357790D+00
  0.41488379D-02 -0.71114942D-02 -0.11668285D-01 -0.69942409D-01  0.46400756D-02
 -0.13578256D-02 -0.32822500D-02  0.11776301D-01  0.59237441D-01 -0.96052940D-02
MO   12     MO 0.0        OCC NO =    2.0000000  ORB. ENERGY =   -0.259563
 -0.24933279D-01 -0.44976078D-01 -0.66306594D-01 -0.62036681D-01 -0.21653787D-01
  0.46238064D-03  0.18395513D-02 -0.56925322D-03  0.39165968D-02  0.72911085D-02
  0.11993805D-01  0.16105667D-01  0.15164093D-01  0.12461344D-02  0.65325168D-02
  0.17358120D-01 -0.23399959D-04  0.39624388D-01  0.37078664D-01  0.28718859D-01
 -0.89713384D-01 -0.83949624D-01 -0.65022228D-01 -0.15122375D-02 -0.14150817D-02
 -0.10960355D-02 -0.68802856D-02  0.12524865D-01 -0.34364632D-01 -0.48233007D-03
 -0.17710078D-01  0.13028970D-01  0.11845074D-01 -0.32513958D-03  0.15921814D-01
 -0.13737609D-01 -0.21842052D-02  0.84411459D-01 -0.63119622D-02 -0.16410733D-02
 -0.19739953D-01 -0.36282077D-01 -0.59299180D-01 -0.79599276D-01 -0.77231215D-01
 -0.76965267D-02 -0.32975848D-01 -0.90014103D-01  0.10186471D-03  0.21176799D+00
  0.20829083D+00  0.15966320D+00  0.20908192D+00  0.20564886D+00  0.15763803D+00
  0.12395575D+00  0.12192044D+00  0.93456859D-01  0.46746024D-01  0.59359554D-01
  0.59819456D-01  0.41385336D-01  0.65973274D-01  0.15258822D-01  0.17593136D-01
  0.14132699D-01  0.36587882D-02 -0.73781730D-02  0.37193848D-02 -0.43892048D-02
  0.13841448D-02  0.18988053D-02 -0.39030516D-02 -0.70405482D-02 -0.10379624D-01
 -0.12867974D-01 -0.91115739D-02  0.23976458D-02 -0.21540947D-02  0.38317985D-02
 -0.42123991D-02 -0.75985670D-02 -0.11202291D-01 -0.19507704D-01 -0.21022347D-02
 -0.53973951D-02  0.71403813D-02  0.47223722D-02 -0.27578691D-02 -0.50721471D-02
 -0.83020183D-02 -0.11188023D-01 -0.11067337D-01 -0.12318262D-02 -0.53496344D-02
 -0.14299817D-01  0.20424398D-04  0.78357219D-01  0.80452934D-01  0.60801794D-01
  0.15298330D+01  0.15707494D+01  0.11870839D+01 -0.88796196D-01 -0.91171107D-01
 -0.68901986D-01  0.11643693D-01  0.27121645D-01  0.48978714D+00 -0.28135853D-01
 -0.63719615D-02  0.79547285D-02  0.10043445D+00 -0.66787495D-02 -0.24637844D-02
  0.29651783D-02 -0.50139392D-03 -0.60824756D-01  0.42607537D-02  0.37545880D-02
END DATA
 TOTAL ENERGY =   -169.917575256901 THE VIRIAL(-V/T)=   2.00141229
