 Formamide B3LYP/6-311G** trial 2
GAUSSIAN             12 MOL ORBITALS    120 PRIMITIVES        6 NUCLEI
  H    1    (CENTRE  1)  -0.89429898  2.93607059  0.27428452  CHARGE =  1.0
  C    2    (CENTRE  2)   0.04612907  0.79783780 -0.06797798  CHARGE =  6.0
  N    3    (CENTRE  3)  -1.72856803 -1.09165720  0.05479334  CHARGE =  7.0
  H    4    (CENTRE  4)  -1.56105465 -3.07497770 -0.15547438  CHARGE =  1.0
  H    5    (CENTRE  5)  -3.42342803 -0.62797820 -0.26482979  CHARGE =  1.0
  O    6    (CENTRE  6)   2.20175840  0.46001218  0.01223105  CHARGE =  8.0
CENTRE ASSIGNMENTS    1  1  1  1  1  1  1  1  2  2  2  2  2  2  2  2  2  2  2  2
CENTRE ASSIGNMENTS    2  2  2  2  2  2  2  2  2  2  2  2  2  2  2  2  2  2  2  2
CENTRE ASSIGNMENTS    3  3  3  3  3  3  3  3  3  3  3  3  3  3  3  3  3  3  3  3
CENTRE ASSIGNMENTS    3  3  3  3  3  3  3  3  3  3  3  3  4  4  4  4  4  4  4  4
CENTRE ASSIGNMENTS    5  5  5  5  5  5  5  5  6  6  6  6  6  6  6  6  6  6  6  6
CENTRE ASSIGNMENTS    6  6  6  6  6  6  6  6  6  6  6  6  6  6  6  6  6  6  6  6
TYPE ASSIGNMENTS      1  1  1  1  1  2  3  4  1  1  1  1  1  1  1  1  1  2  2  2
TYPE ASSIGNMENTS      3  3  3  4  4  4  1  2  3  4  1  2  3  4  5  6  7  8  9 10
TYPE ASSIGNMENTS      1  1  1  1  1  1  1  1  1  2  2  2  3  3  3  4  4  4  1  2
TYPE ASSIGNMENTS      3  4  1  2  3  4  5  6  7  8  9 10  1  1  1  1  1  2  3  4
TYPE ASSIGNMENTS      1  1  1  1  1  2  3  4  1  1  1  1  1  1  1  1  1  2  2  2
TYPE ASSIGNMENTS      3  3  3  4  4  4  1  2  3  4  1  2  3  4  5  6  7  8  9 10
EXPONENTS  0.3386500D+02 0.5094790D+01 0.1158790D+01 0.3258400D+00 0.1027410D+00
EXPONENTS  0.7500000D+00 0.7500000D+00 0.7500000D+00 0.4563240D+04 0.6820240D+03
EXPONENTS  0.1549730D+03 0.4445530D+02 0.1302900D+02 0.1827730D+01 0.2096420D+02
EXPONENTS  0.4803310D+01 0.1459330D+01 0.2096420D+02 0.4803310D+01 0.1459330D+01
EXPONENTS  0.2096420D+02 0.4803310D+01 0.1459330D+01 0.2096420D+02 0.4803310D+01
EXPONENTS  0.1459330D+01 0.4834560D+00 0.4834560D+00 0.4834560D+00 0.4834560D+00
EXPONENTS  0.1455850D+00 0.1455850D+00 0.1455850D+00 0.1455850D+00 0.6260000D+00
EXPONENTS  0.6260000D+00 0.6260000D+00 0.6260000D+00 0.6260000D+00 0.6260000D+00
EXPONENTS  0.6293480D+04 0.9490440D+03 0.2187760D+03 0.6369160D+02 0.1882820D+02
EXPONENTS  0.2720230D+01 0.3063310D+02 0.7026140D+01 0.2112050D+01 0.3063310D+02
EXPONENTS  0.7026140D+01 0.2112050D+01 0.3063310D+02 0.7026140D+01 0.2112050D+01
EXPONENTS  0.3063310D+02 0.7026140D+01 0.2112050D+01 0.6840090D+00 0.6840090D+00
EXPONENTS  0.6840090D+00 0.6840090D+00 0.2008780D+00 0.2008780D+00 0.2008780D+00
EXPONENTS  0.2008780D+00 0.9130000D+00 0.9130000D+00 0.9130000D+00 0.9130000D+00
EXPONENTS  0.9130000D+00 0.9130000D+00 0.3386500D+02 0.5094790D+01 0.1158790D+01
EXPONENTS  0.3258400D+00 0.1027410D+00 0.7500000D+00 0.7500000D+00 0.7500000D+00
EXPONENTS  0.3386500D+02 0.5094790D+01 0.1158790D+01 0.3258400D+00 0.1027410D+00
EXPONENTS  0.7500000D+00 0.7500000D+00 0.7500000D+00 0.8588500D+04 0.1297230D+04
EXPONENTS  0.2992960D+03 0.8737710D+02 0.2567890D+02 0.3740040D+01 0.4211750D+02
EXPONENTS  0.9628370D+01 0.2853320D+01 0.4211750D+02 0.9628370D+01 0.2853320D+01
EXPONENTS  0.4211750D+02 0.9628370D+01 0.2853320D+01 0.4211750D+02 0.9628370D+01
EXPONENTS  0.2853320D+01 0.9056610D+00 0.9056610D+00 0.9056610D+00 0.9056610D+00
EXPONENTS  0.2556110D+00 0.2556110D+00 0.2556110D+00 0.2556110D+00 0.1292000D+01
EXPONENTS  0.1292000D+01 0.1292000D+01 0.1292000D+01 0.1292000D+01 0.1292000D+01
MO    1     MO 0.0        OCC NO =    2.0000000  ORB. ENERGY =  -19.095096
 -0.38704838D-04 -0.69818006D-04 -0.10293014D-03  0.39555066D-04  0.49233057D-04
 -0.45459685D-03  0.15573310D-03 -0.89823658D-05 -0.45879772D-04 -0.85409454D-04
 -0.14049775D-03 -0.18866490D-03 -0.17763511D-03 -0.14597460D-04  0.19250129D-03
  0.51151197D-03 -0.68955387D-06  0.10413057D-02  0.97440558D-03  0.75471478D-03
 -0.10181048D-03 -0.95269525D-04 -0.73789930D-04 -0.29872627D-04 -0.27953418D-04
 -0.21651003D-04 -0.70280212D-04 -0.11464263D-02  0.13800910D-03  0.10089196D-04
  0.52004583D-03  0.47868887D-03 -0.16377366D-03  0.48817228D-05 -0.10649070D-02
  0.78432233D-03  0.28058471D-03  0.71116372D-03 -0.11660210D-03  0.25135176D-04
 -0.51303384D-05 -0.94295732D-05 -0.15411630D-04 -0.20687548D-04 -0.20072098D-04
 -0.20002979D-05  0.56523643D-04  0.15429247D-03 -0.17460550D-06  0.48050395D-03
  0.47261423D-03  0.36227759D-03  0.33552982D-03  0.33002052D-03  0.25297385D-03
 -0.19834128D-05 -0.19508457D-05 -0.14954008D-05 -0.11486305D-03 -0.48642893D-03
 -0.37869453D-03  0.60084903D-05 -0.56881041D-04 -0.15054331D-03  0.24334434D-03
  0.95242988D-06 -0.15482695D-03  0.11335926D-03  0.41467696D-04 -0.68424452D-03
  0.11042018D-03 -0.80273272D-04 -0.34479270D-04 -0.62195683D-04 -0.91692831D-04
  0.25838877D-03 -0.20596012D-04  0.19144707D-04  0.20958775D-04  0.20213033D-04
 -0.21676697D-04 -0.39101668D-04 -0.57646166D-04 -0.12891680D-03  0.46095685D-04
 -0.55301211D-04  0.18953953D-04 -0.60782540D-04  0.66426484D+00  0.12216856D+01
  0.19996377D+01  0.26947654D+01  0.26656969D+01  0.29669968D+00  0.63035537D+00
  0.16849686D+01 -0.24066372D-02 -0.63856338D-02 -0.65564217D-02 -0.49549741D-02
  0.78297074D-03  0.80391179D-03  0.60755124D-03 -0.30998301D-03 -0.31827371D-03
 -0.24053334D-03  0.92072493D-02 -0.18099634D-02  0.29889740D-03 -0.89492914D-04
 -0.21150867D-02  0.42747218D-03 -0.45679306D-04  0.28148998D-04  0.13651816D-02
 -0.70348245D-03 -0.66169916D-03 -0.63800572D-03  0.16040076D-03 -0.30909765D-04
MO    2     MO 0.0        OCC NO =    2.0000000  ORB. ENERGY =  -14.333101
 -0.19825704D-04 -0.35762741D-04 -0.52723707D-04 -0.14792121D-03  0.29262706D-04
  0.18259521D-04  0.33691246D-03  0.16150603D-04 -0.55242859D-06 -0.10283971D-05
 -0.16917036D-05 -0.22716740D-05 -0.21388667D-05 -0.17576491D-06  0.65919447D-04
  0.17516031D-03 -0.23612834D-06 -0.10015696D-02 -0.93722237D-03 -0.72591496D-03
 -0.91362615D-03 -0.85492897D-03 -0.66217554D-03  0.15797231D-04  0.14782316D-04
  0.11449475D-04  0.21806406D-04  0.80325624D-03  0.54291440D-03  0.35297525D-05
  0.65371770D-03 -0.19709499D-03 -0.25845911D-03  0.36202251D-04  0.85698738D-04
 -0.17438207D-03  0.88683333D-04 -0.15116347D-02  0.86552782D-04  0.10700859D-03
  0.55284128D+00  0.10161235D+01  0.16607453D+01  0.22292741D+01  0.21629537D+01
  0.21555055D+00  0.48360847D+00  0.13201050D+01 -0.14939005D-02 -0.12728329D-03
 -0.12519334D-03 -0.95965667D-04 -0.53235899D-03 -0.52361782D-03 -0.40137387D-03
 -0.16063985D-02 -0.15800219D-02 -0.12111496D-02  0.85513983D-02 -0.10205932D-02
  0.54232387D-03 -0.38054872D-03 -0.12281742D-02 -0.40325475D-03 -0.37202997D-03
 -0.31820419D-04  0.11409816D-02  0.40907252D-03 -0.15500542D-02 -0.39695909D-04
  0.79752468D-03  0.16048847D-04  0.23970034D-04  0.43238521D-04  0.63744977D-04
 -0.53680903D-03  0.55073839D-04  0.40807232D-03 -0.13398157D-02 -0.14562253D-03
 -0.11538154D-03 -0.20813184D-03 -0.30684119D-03 -0.95120563D-03  0.83188783D-04
 -0.23275675D-02  0.89719658D-03 -0.45513701D-03  0.52466930D-05  0.96494786D-05
  0.15794129D-04  0.21284593D-04  0.21054995D-04  0.23434811D-05  0.69415431D-04
  0.18555061D-03 -0.26502155D-06 -0.43654169D-03 -0.44821728D-03 -0.33873736D-03
 -0.25947303D-04 -0.26641280D-04 -0.20133978D-04 -0.38612033D-04 -0.39644736D-04
 -0.29961258D-04 -0.21644698D-03  0.64615304D-03  0.63165920D-05  0.44439443D-04
 -0.19945521D-03  0.10983901D-03  0.10708536D-03 -0.21555813D-04 -0.51408194D-03
  0.46421378D-03  0.49868159D-04 -0.38619616D-03 -0.11114380D-04 -0.11734152D-03
MO    3     MO 0.0        OCC NO =    2.0000000  ORB. ENERGY =  -10.281719
  0.92325835D-04  0.16654263D-03  0.24552774D-03 -0.33884540D-03  0.20232921D-03
 -0.35052312D-03  0.80434656D-03  0.11734846D-03  0.43809697D+00  0.81555818D+00
  0.13415855D+01  0.18015242D+01  0.16962030D+01  0.13938829D+00  0.37105143D+00
  0.98595313D+00 -0.13291337D-02 -0.51542732D-03 -0.48231298D-03 -0.37357004D-03
 -0.86987693D-03 -0.81399048D-03 -0.63046709D-03 -0.26439813D-03 -0.24741151D-03
 -0.19162978D-03  0.70260484D-02  0.17503030D-02 -0.51580408D-03  0.24577107D-03
  0.28004162D-03  0.24253495D-03 -0.23053314D-03 -0.34945880D-05  0.20100747D-02
 -0.46888497D-03 -0.15411897D-02 -0.11517845D-03  0.76676771D-04  0.35936981D-04
 -0.47385577D-04 -0.87094794D-04 -0.14234714D-03 -0.19107733D-03 -0.18539283D-03
 -0.18475442D-04 -0.14531009D-04 -0.39665264D-04  0.44887307D-07  0.12288165D-02
  0.12086397D-02  0.92647035D-03  0.16279660D-02  0.16012353D-02  0.12274105D-02
 -0.77233223D-04 -0.75965077D-04 -0.58230251D-04  0.22263509D-03 -0.71850258D-03
 -0.10598077D-02  0.43403848D-04 -0.56182330D-03 -0.23638638D-03 -0.21935895D-03
  0.20719390D-04 -0.85576789D-04 -0.67030309D-03  0.75587988D-03 -0.17814792D-02
  0.15769318D-03  0.30457120D-03  0.24148767D-05  0.43560931D-05  0.64220294D-05
 -0.10052079D-03 -0.61401253D-05  0.13806103D-03 -0.12310650D-03 -0.18306055D-04
 -0.37414939D-04 -0.67491212D-04 -0.99499836D-04  0.61603864D-04  0.21180499D-04
  0.10975643D-03  0.41113958D-03 -0.55603759D-04 -0.17958758D-03 -0.33028929D-03
 -0.54061282D-03 -0.72854434D-03 -0.72068552D-03 -0.80214355D-04 -0.79938582D-04
 -0.21367947D-03  0.30519794D-06 -0.35760138D-02 -0.36716566D-02 -0.27748312D-02
  0.70529078D-03  0.72415424D-03  0.54727497D-03 -0.12275607D-03 -0.12603926D-03
 -0.95253374D-04 -0.33597638D-04  0.31044146D-02 -0.63857870D-03  0.11949295D-03
 -0.19627118D-02  0.93394220D-03 -0.90017160D-04  0.43616902D-04 -0.28660990D-02
  0.12177246D-02  0.16483744D-02  0.16468685D-02 -0.40027174D-03  0.46319299D-04
MO    4     MO 0.0        OCC NO =    2.0000000  ORB. ENERGY =   -1.075758
  0.32821929D-02  0.59206078D-02  0.87285365D-02  0.35188925D-02 -0.46289888D-03
  0.36261595D-02 -0.28891483D-02 -0.13367138D-03 -0.56707861D-01 -0.10556695D+00
 -0.17365663D+00 -0.23319172D+00 -0.21955879D+00 -0.18042607D-01 -0.87784460D-01
 -0.23325975D+00  0.31445043D-03  0.23450740D+00  0.21944115D+00  0.16996565D+00
 -0.65248170D-01 -0.61056211D-01 -0.47290395D-01  0.11366641D-01  0.10636375D-01
  0.82382838D-02  0.11968171D+00  0.57453302D-01 -0.19838529D-01  0.27544446D-02
  0.82421962D-02 -0.11971726D-02  0.72945136D-03 -0.57714066D-04  0.19456696D-01
 -0.80104463D-02 -0.11446250D-01 -0.54260204D-02  0.17606652D-02 -0.59397158D-03
 -0.23395728D-01 -0.43001399D-01 -0.70281195D-01 -0.94340802D-01 -0.91534184D-01
 -0.91218984D-02 -0.38326344D-01 -0.10461934D+00  0.11839277D-03  0.50238943D-01
  0.49414035D-01  0.37877822D-01  0.36782791D-01  0.36178829D-01  0.27732510D-01
 -0.84734498D-02 -0.83343184D-02 -0.63885863D-02  0.54260869D-01  0.18941432D-01
  0.12313792D-01 -0.28207701D-02  0.11488941D-01  0.21197197D-02 -0.60279776D-03
 -0.17159870D-03  0.49794660D-02 -0.13350072D-02 -0.36444587D-02  0.73218639D-02
 -0.44447081D-03  0.23938581D-03  0.28707051D-02  0.51783425D-02  0.76342418D-02
  0.18154733D-02  0.42212982D-05  0.54186609D-04  0.32108667D-02  0.16480868D-03
  0.32208619D-02  0.58099753D-02  0.85654351D-02  0.43646447D-02 -0.30744784D-03
  0.38731439D-02  0.10899749D-03  0.59033258D-03 -0.12320166D+00 -0.22658688D+00
 -0.37087419D+00 -0.49980001D+00 -0.49440866D+00 -0.55029095D-01 -0.21920259D+00
 -0.58593851D+00  0.83689475D-03 -0.45821561D+00 -0.47047089D+00 -0.35555539D+00
  0.59190418D-01  0.60773504D-01  0.45929190D-01 -0.16363499D-01 -0.16801151D-01
 -0.12697363D-01  0.30753346D+00 -0.14751519D+00  0.18596105D-01 -0.51757528D-02
  0.77677315D-01 -0.10606703D-01  0.97525697D-03 -0.38399893D-03  0.47547941D-01
 -0.26204188D-01 -0.21343752D-01 -0.19819560D-01  0.50487050D-02 -0.13774740D-02
MO    5     MO 0.0        OCC NO =    2.0000000  ORB. ENERGY =   -0.915148
  0.25393840D-02  0.45806864D-02  0.67531392D-02  0.42971716D-02 -0.37026352D-03
 -0.10115412D-02 -0.45461597D-02 -0.51461477D-03 -0.17482048D-01 -0.32544454D-01
 -0.53535321D-01 -0.71888952D-01 -0.67686158D-01 -0.55622222D-02 -0.28396746D-01
 -0.75455472D-01  0.10171925D-03 -0.21740805D+00 -0.20344037D+00 -0.15757243D+00
 -0.96244738D-01 -0.90061361D-01 -0.69756006D-01  0.10565296D-02  0.98865137D-03
  0.76574870D-03  0.40725638D-01 -0.64782600D-01 -0.32200366D-01  0.60030699D-04
  0.42235480D-02 -0.13253424D-02  0.13870442D-03 -0.84257455D-04 -0.31015185D-02
  0.67909749D-02 -0.36894563D-02  0.23106154D-01 -0.89506782D-03 -0.44211785D-03
 -0.10768785D+00 -0.19793051D+00 -0.32349628D+00 -0.43423990D+00 -0.42132136D+00
 -0.41987052D-01 -0.17735497D+00 -0.48412549D+00  0.54786197D-03 -0.38916826D-01
 -0.38277824D-01 -0.29341473D-01  0.70967064D-01  0.69801807D-01  0.53505859D-01
 -0.56616199D-01 -0.55686579D-01 -0.42685976D-01  0.25130813D+00 -0.89100742D-02
  0.22738173D-01 -0.19158943D-01  0.66779334D-01 -0.21144862D-03  0.34461267D-02
 -0.17544804D-02  0.65819617D-02  0.99429851D-02 -0.16524947D-01  0.86210868D-02
  0.49437656D-02 -0.20141112D-02  0.17340112D-01  0.31279088D-01  0.46113621D-01
  0.21438499D-01  0.28401457D-03 -0.25071878D-02  0.16701959D-01  0.10098528D-02
  0.25568977D-01  0.46122786D-01  0.67997145D-01  0.26466660D-01  0.44623609D-03
  0.19228860D-01 -0.49381448D-02  0.26654909D-02  0.41402623D-01  0.76145816D-01
  0.12463439D+00  0.16796065D+00  0.16614886D+00  0.18492842D-01  0.74062492D-01
  0.19797241D+00 -0.28276358D-03  0.93751992D-01  0.96259450D-01  0.72747468D-01
 -0.62658244D-01 -0.64334079D-01 -0.48620072D-01  0.69400888D-02  0.71257060D-02
  0.53852070D-02 -0.10558919D+00  0.28806860D-01 -0.21307317D-01  0.21883213D-02
 -0.28531716D-01  0.12719562D-02 -0.20017584D-02  0.23419772D-03 -0.89602278D-02
  0.40802272D-02  0.48800006D-02  0.19851338D-01 -0.20633437D-02  0.11474031D-02
MO    6     MO 0.0        OCC NO =    2.0000000  ORB. ENERGY =   -0.620600
  0.16134467D-01  0.29104276D-01  0.42907375D-01  0.25921115D-01  0.13765448D-02
  0.25722182D-02 -0.12251145D-01 -0.14583769D-02 -0.55368015D-01 -0.10307270D+00
 -0.16955362D+00 -0.22768206D+00 -0.21437124D+00 -0.17616312D-01 -0.89842139D-01
 -0.23872739D+00  0.32182119D-03 -0.24421607D+00 -0.22852607D+00 -0.17700228D+00
 -0.44618984D-01 -0.41752376D-01 -0.32338829D-01  0.24552888D-01  0.22975454D-01
  0.17795377D-01  0.13474615D+00 -0.74497541D-01 -0.13683409D-01  0.78765619D-02
  0.28827882D-01 -0.80309998D-02  0.16472065D-02  0.12898529D-03 -0.53645206D-03
  0.54339695D-02 -0.48975175D-02  0.11068633D-01 -0.19934879D-02 -0.92270070D-03
  0.20010723D-01  0.36779753D-01  0.60112579D-01  0.80691128D-01  0.78290585D-01
  0.78020989D-02  0.33219037D-01  0.90677934D-01 -0.10261594D-03  0.43731452D+00
  0.43013395D+00  0.32971477D+00  0.54268067D+00  0.53377002D+00  0.40915593D+00
  0.50578729D-01  0.49748242D-01  0.38134004D-01 -0.47616462D-01  0.14233762D+00
  0.17841977D+00  0.16447844D-01 -0.18070287D-01  0.17569848D-01  0.21568825D-01
  0.22549498D-02 -0.56157481D-02  0.42456707D-02  0.13700774D-02  0.31677799D-01
 -0.10339708D-01 -0.88414859D-02 -0.26460226D-01 -0.47730472D-01 -0.70367296D-01
 -0.37725277D-01 -0.40405293D-02  0.90113465D-02 -0.15992277D-01 -0.13061232D-02
 -0.19312425D-01 -0.34836859D-01 -0.51358712D-01 -0.24505161D-01 -0.31692276D-02
 -0.38569895D-02  0.13687376D-01 -0.99265815D-03  0.41749606D-01  0.76783972D-01
  0.12567891D+00  0.16936828D+00  0.16754130D+00  0.18647825D-01  0.75493633D-01
  0.20179792D+00 -0.28822754D-03 -0.17573201D+00 -0.18043207D+00 -0.13636040D+00
 -0.12956270D-01 -0.13302794D-01 -0.10053502D-01  0.20624169D-01  0.21175776D-01
  0.16003458D-01 -0.11189158D+00 -0.53128100D-01 -0.57179892D-02  0.72252476D-02
 -0.39347697D-01 -0.89595631D-02 -0.18683442D-03  0.96401095D-03  0.54386289D-02
 -0.26452687D-02 -0.27933602D-02  0.74173531D-02 -0.44967847D-02  0.13307904D-02
MO    7     MO 0.0        OCC NO =    2.0000000  ORB. ENERGY =   -0.545522
 -0.17382595D-01 -0.31355722D-01 -0.46226599D-01 -0.29209353D-01 -0.37448759D-02
 -0.44209520D-02  0.10491118D-01  0.27208608D-02  0.42087921D-02  0.78350572D-02
  0.12888595D-01  0.17307220D-01  0.16295400D-01  0.13391015D-02  0.70730060D-02
  0.18794301D-01 -0.25336031D-04  0.15698726D-01  0.14690139D-01  0.11378081D-01
 -0.31855377D+00 -0.29808784D+00 -0.23088056D+00  0.19752909D-02  0.18483856D-02
  0.14316461D-02 -0.84400814D-02  0.59207688D-02 -0.10396070D+00  0.90667510D-03
 -0.81586874D-02  0.19254937D-02 -0.92051189D-02  0.37122131D-04 -0.14058886D-01
  0.13992901D-01  0.65985242D-04 -0.35245145D-02 -0.62078810D-03 -0.37882195D-02
 -0.94073877D-02 -0.17290799D-01 -0.28259965D-01 -0.37934297D-01 -0.36805760D-01
 -0.36679019D-02 -0.16054460D-01 -0.43823827D-01  0.49593356D-04  0.68614173D+00
  0.67487549D+00  0.51731888D+00 -0.31833994D+00 -0.31311290D+00 -0.24001348D+00
  0.45023743D-01  0.44284467D-01  0.33945804D-01  0.25236288D-01  0.22382304D+00
 -0.10342601D+00  0.13700355D-01  0.13353427D-01  0.29980349D-01 -0.15062534D-01
  0.16944942D-02 -0.10500836D-01  0.10644277D-01 -0.14344194D-03  0.23845263D-01
 -0.17058319D-01  0.78697553D-02  0.21274139D-01  0.38375511D-01  0.56575619D-01
  0.31018823D-01  0.49975360D-02  0.88219662D-02  0.11608948D-01  0.19632034D-02
 -0.36124296D-01 -0.65163075D-01 -0.96067549D-01 -0.51405524D-01 -0.74901133D-02
 -0.13453609D-01  0.21969760D-03 -0.31041347D-02  0.97524650D-02  0.17936289D-01
  0.29357863D-01  0.39563444D-01  0.39136673D-01  0.43560234D-02  0.17337628D-01
  0.46344270D-01 -0.66193424D-04 -0.13727274D+00 -0.14094418D+00 -0.10651767D+00
 -0.39292519D+00 -0.40343423D+00 -0.30489286D+00 -0.71059333D-05 -0.72959860D-05
 -0.55138952D-05 -0.23966128D-01 -0.46498827D-01 -0.12736807D+00 -0.39310986D-04
 -0.12377494D-01 -0.58680396D-02 -0.17855720D-01 -0.26863643D-04  0.12607495D-01
 -0.84917818D-02 -0.41157136D-02  0.44370618D-01  0.91297589D-03  0.14117595D-02
MO    8     MO 0.0        OCC NO =    2.0000000  ORB. ENERGY =   -0.480272
 -0.22672316D-01 -0.40897623D-01 -0.60293876D-01 -0.38985560D-01 -0.42384425D-02
 -0.84732326D-02  0.10190177D-01  0.20660723D-02  0.29246524D-01  0.54445120D-01
  0.89561710D-01  0.12026635D+00  0.11323530D+00  0.93052982D-02  0.47679241D-01
  0.12669267D+00 -0.17079057D-03 -0.17941066D+00 -0.16788417D+00 -0.13003278D+00
 -0.30557228D+00 -0.28594037D+00 -0.22147187D+00 -0.28548828D-01 -0.26714669D-01
 -0.20691544D-01 -0.74329900D-01 -0.52640749D-01 -0.97210806D-01 -0.91816071D-02
 -0.18263262D-01  0.23641125D-02 -0.13629973D-01 -0.13105765D-02  0.40330716D-02
 -0.28655562D-02 -0.11675154D-02  0.24339172D-02 -0.89672607D-03 -0.24029162D-02
 -0.51947936D-02 -0.95480419D-02 -0.15605255D-01 -0.20947456D-01 -0.20324274D-01
 -0.20254287D-02 -0.88140962D-02 -0.24059820D-01  0.27227362D-04 -0.58268920D-01
 -0.57312163D-01 -0.43932050D-01  0.52380844D+00  0.51520767D+00  0.39492715D+00
 -0.31996576D-01 -0.31471202D-01 -0.24123927D-01  0.14134141D-01 -0.18401186D-01
  0.17175587D+00 -0.11055854D-01  0.22114627D-02 -0.31542570D-02  0.27048783D-01
 -0.12864281D-02  0.12850913D-01 -0.12577611D-01 -0.27330127D-03  0.59102300D-02
  0.13896180D-02 -0.13170236D-01 -0.26957428D-01 -0.48627353D-01 -0.71689536D-01
 -0.42171370D-01 -0.71208758D-02  0.31135870D-02 -0.10463170D-01 -0.20836343D-02
  0.12918700D-01  0.23303492D-01  0.34355489D-01  0.20199314D-01  0.33795928D-02
  0.79825215D-02  0.71673223D-02  0.65537305D-03 -0.48507005D-01 -0.89211873D-01
 -0.14602073D+00 -0.19678145D+00 -0.19465876D+00 -0.21666076D-01 -0.87583137D-01
 -0.23411372D+00  0.33438413D-03  0.64596120D+00  0.66323785D+00  0.50123779D+00
 -0.56145437D+00 -0.57647083D+00 -0.43566417D+00 -0.15979435D-01 -0.16406816D-01
 -0.12399347D-01  0.12980944D+00  0.19838890D+00 -0.18543877D+00 -0.61321491D-02
  0.60542095D-01  0.31789098D-01 -0.26608522D-01 -0.50448485D-03 -0.24327582D-01
  0.55093379D-02  0.18818244D-01  0.68849231D-01  0.11704735D-02  0.16053676D-02
MO    9     MO 0.0        OCC NO =    2.0000000  ORB. ENERGY =   -0.431785
  0.15388866D-01  0.27759320D-01  0.40924554D-01  0.28714020D-01  0.71492387D-02
 -0.24861297D-03 -0.95620133D-02  0.38522381D-02  0.11114839D-01  0.20691305D-01
  0.34037002D-01  0.45705982D-01  0.43033905D-01  0.35363824D-02  0.17669712D-01
  0.46951733D-01 -0.63294216D-04 -0.24472578D+00 -0.22900303D+00 -0.17737170D+00
  0.14973332D+00  0.14011350D+00  0.10852332D+00  0.32603774D+00  0.30509100D+00
  0.23630477D+00 -0.30832872D-01 -0.73031147D-01  0.49400823D-01  0.10934532D+00
  0.38730515D-02 -0.64464332D-04  0.39306478D-02  0.16233359D-01 -0.99196187D-02
  0.71535843D-02  0.27660344D-02  0.80120282D-02  0.18552004D-01 -0.13401597D-01
 -0.60950248D-02 -0.11202669D-01 -0.18309566D-01 -0.24577544D-01 -0.23846367D-01
 -0.23764251D-02 -0.10278286D-01 -0.28056616D-01  0.31750348D-04  0.16654528D+00
  0.16381066D+00  0.12556738D+00 -0.12320803D+00 -0.12118499D+00 -0.92893113D-01
  0.33620491D+00  0.33068453D+00  0.25348283D+00  0.15368712D-01  0.53960046D-01
 -0.41344052D-01  0.11310176D+00  0.79506951D-02  0.55997655D-02 -0.20503920D-02
  0.20690203D-01 -0.11548511D-01  0.15164369D-01 -0.36158582D-02  0.47542555D-02
  0.94151619D-02  0.19120459D-01  0.93667026D-02  0.16896195D-01  0.24909445D-01
  0.20593209D-01  0.45093895D-02  0.23373190D-02  0.42777221D-02  0.70519508D-02
 -0.12994736D-01 -0.23440650D-01 -0.34557696D-01 -0.22067725D-01 -0.42182951D-02
 -0.45977916D-02  0.34295461D-03  0.54302499D-02 -0.32784493D-01 -0.60295746D-01
 -0.98691220D-01 -0.13299894D+00 -0.13156427D+00 -0.14643479D-01 -0.59238607D-01
 -0.15834750D+00  0.22616740D-03  0.84237924D+00  0.86490921D+00  0.65364965D+00
  0.72449526D-01  0.74387236D-01  0.56217681D-01  0.76229504D+00  0.78268311D+00
  0.59150780D+00  0.88170437D-01  0.25830387D+00  0.27520076D-01  0.25180118D+00
  0.45513137D-01  0.42479589D-01  0.37993879D-02  0.39994071D-01 -0.38386962D-01
  0.21318771D-01  0.17068191D-01 -0.51291729D-02 -0.79015693D-01  0.98540602D-02
MO   10     MO 0.0        OCC NO =    2.0000000  ORB. ENERGY =   -0.418320
  0.15094851D-01  0.27228958D-01  0.40142661D-01  0.29474250D-01  0.73646726D-02
 -0.95901311D-03 -0.73159827D-02 -0.75505419D-02  0.16416735D-02  0.30561276D-02
  0.50273011D-02  0.67508216D-02  0.63561530D-02  0.52232741D-03  0.20826045D-02
  0.55338701D-02 -0.74600435D-05 -0.26269018D+00 -0.24581328D+00 -0.19039189D+00
  0.16579769D+00  0.15514579D+00  0.12016641D+00 -0.31786475D+00 -0.29744309D+00
 -0.23038117D+00 -0.76905936D-02 -0.77496386D-01  0.55289654D-01 -0.10553659D+00
  0.12761834D-01 -0.12663539D-03  0.52789715D-02 -0.16588795D-01 -0.83062644D-02
  0.85721526D-02 -0.26588824D-03  0.10826408D-01 -0.22398731D-01  0.15958591D-01
  0.22711207D-02  0.41743247D-02  0.68224880D-02  0.91580542D-02  0.88856041D-02
  0.88550063D-03  0.39150126D-02  0.10686802D-01 -0.12093749D-04  0.23680944D+00
  0.23292110D+00  0.17854328D+00 -0.14659653D+00 -0.14418946D+00 -0.11052695D+00
 -0.29310200D+00 -0.28828935D+00 -0.22098525D+00 -0.71184290D-02  0.75562222D-01
 -0.50263971D-01 -0.99205621D-01  0.15539248D-02  0.96361033D-02 -0.15149647D-02
 -0.19007607D-01 -0.16461230D-01  0.12864580D-01  0.35966495D-02  0.37128392D-02
 -0.18780771D-01 -0.12758747D-01  0.12221659D-01  0.22046128D-01  0.32501804D-01
  0.25310193D-01  0.58838873D-02  0.34218955D-02  0.66049971D-02 -0.45210581D-02
 -0.14251136D-01 -0.25707017D-01 -0.37898919D-01 -0.28003394D-01 -0.50020005D-02
 -0.39216344D-02  0.32804320D-03 -0.82786025D-02 -0.27123428D-01 -0.49884172D-01
 -0.81649705D-01 -0.11003333D+00 -0.10884640D+00 -0.12114915D-01 -0.48951401D-01
 -0.13084932D+00  0.18689181D-03  0.89516900D+00  0.91911088D+00  0.69461221D+00
  0.11964864D+00  0.12284872D+00  0.92842141D-01 -0.70934726D+00 -0.72831921D+00
 -0.55042262D+00  0.72816558D-01  0.27638691D+00  0.42747736D-01 -0.23572875D+00
  0.38329349D-01  0.46063462D-01  0.64256114D-02 -0.37685482D-01 -0.44679402D-01
  0.21948406D-01  0.22730996D-01 -0.73246161D-02  0.67618510D-01 -0.10171843D-01
MO   11     MO 0.0        OCC NO =    2.0000000  ORB. ENERGY =   -0.285521
 -0.40443288D-02 -0.72953922D-02 -0.10755331D-01 -0.72663605D-02 -0.13572320D-02
 -0.45103049D-03 -0.16801947D-05  0.83200956D-03  0.27979545D-02  0.52086521D-02
  0.85681837D-02  0.11505633D-01  0.10832987D-01  0.89021865D-03  0.46074970D-02
  0.12242982D-01 -0.16504395D-04  0.26402505D-01  0.24706240D-01  0.19135938D-01
  0.22907255D-02  0.21435546D-02  0.16602659D-02 -0.34468517D-01 -0.32254040D-01
 -0.24982001D-01 -0.62448350D-02  0.72162844D-02 -0.63946115D-03 -0.99340560D-02
 -0.29252089D-02  0.29111572D-02 -0.11422609D-02 -0.32712713D-02  0.35629147D-02
 -0.32566377D-02 -0.30627695D-03  0.94611692D-02 -0.61221015D-01 -0.18084053D-01
 -0.13724600D-01 -0.25225845D-01 -0.41228951D-01 -0.55343001D-01 -0.53696559D-01
 -0.53511654D-02 -0.23221976D-01 -0.63388977D-01  0.71734314D-04 -0.29991784D-01
 -0.29499328D-01 -0.22612407D-01  0.34367105D-01  0.33802807D-01  0.25911195D-01
  0.93776369D+00  0.92236590D+00  0.70703012D+00  0.36005121D-01 -0.93182296D-02
  0.10856206D-01  0.30097546D+00  0.21468362D-01 -0.55545997D-02  0.36877837D-02
  0.78767957D-01  0.50354047D-02  0.11615497D-02 -0.61969544D-02 -0.17802224D-02
 -0.40719872D-02  0.46687750D-02 -0.42857473D-02 -0.77308767D-02 -0.11397350D-01
 -0.41523325D-02 -0.25389347D-02  0.41591779D-03 -0.14447045D-02  0.19555033D-01
 -0.35190579D-02 -0.63478783D-02 -0.93584459D-02 -0.67919978D-02 -0.17798315D-02
 -0.50150112D-02  0.17298537D-02  0.22737055D-01 -0.16892346D-03 -0.31067633D-03
 -0.50851060D-03 -0.68528252D-03 -0.67789037D-03 -0.75451133D-04 -0.37902057D-03
 -0.10131392D-02  0.14470647D-05  0.40407935D-01  0.41488672D-01  0.31354800D-01
  0.18330015D+00  0.18820263D+00  0.14223294D+00 -0.94103925D+00 -0.96620795D+00
 -0.73020553D+00  0.12541251D-02  0.13588037D-01  0.59183887D-01 -0.30284900D+00
 -0.26435068D-02  0.30394265D-02  0.12337588D-01 -0.62878831D-01 -0.19358644D-02
  0.42308368D-03  0.15127807D-02 -0.96709337D-02  0.48011105D-01 -0.10547568D-01
MO   12     MO 0.0        OCC NO =    2.0000000  ORB. ENERGY =   -0.267834
 -0.27212322D-01 -0.49087146D-01 -0.72367392D-01 -0.64574918D-01 -0.23489605D-01
  0.71848982D-03  0.15401461D-02  0.83058657D-03  0.41528954D-02  0.77310002D-02
  0.12717423D-01  0.17077364D-01  0.16078982D-01  0.13213170D-02  0.70321761D-02
  0.18685809D-01 -0.25189776D-04  0.32015392D-01  0.29958519D-01  0.23204031D-01
 -0.73266819D-01 -0.68559691D-01 -0.53102131D-01 -0.28445135D-03 -0.26617638D-03
 -0.20616390D-03 -0.81605740D-02  0.10124883D-01 -0.33402120D-01 -0.12690256D-02
 -0.15672211D-01  0.11308093D-01  0.87765754D-02  0.70386146D-03  0.14305802D-01
 -0.12707816D-01 -0.15979853D-02  0.86165821D-01  0.10376571D-01 -0.10873194D-02
 -0.22895016D-01 -0.42081089D-01 -0.68777046D-01 -0.92321732D-01 -0.89575181D-01
 -0.89266726D-02 -0.38351955D-01 -0.10468925D+00  0.11847188D-03  0.25589273D+00
  0.25169105D+00  0.19293119D+00  0.20741467D+00  0.20400898D+00  0.15638099D+00
 -0.11657304D+00 -0.11465895D+00 -0.87890641D-01  0.56006190D-01  0.77617267D-01
  0.60389006D-01 -0.38430726D-01  0.63119928D-01  0.16907662D-01  0.17601891D-01
 -0.11877547D-01  0.19138961D-02 -0.62908101D-02  0.43769140D-02 -0.39423225D-02
 -0.81857526D-03 -0.31903663D-02 -0.55102564D-02 -0.99397164D-02 -0.14653762D-01
 -0.13502621D-01 -0.81180043D-02  0.40529105D-02 -0.29467615D-02 -0.22188011D-02
 -0.51002098D-02 -0.92000508D-02 -0.13563300D-01 -0.19276704D-01 -0.38629103D-02
 -0.24462223D-02  0.64527552D-02 -0.47281705D-02 -0.21141426D-02 -0.38882347D-02
 -0.63642074D-02 -0.85765767D-02 -0.84840610D-02 -0.94430021D-03 -0.41341954D-02
 -0.11050893D-01  0.15783967D-04  0.17133469D+00  0.17591714D+00  0.13294827D+00
  0.14650511D+01  0.15042348D+01  0.11368159D+01  0.16175917D+00  0.16608552D+00
  0.12551808D+00  0.93323674D-02  0.56007322D-01  0.47056944D+00  0.51599492D-01
 -0.55717947D-02  0.13487250D-01  0.95884600D-01  0.11186869D-01 -0.61186733D-02
  0.66099101D-02 -0.49123684D-03 -0.59455463D-01 -0.73649859D-02 -0.21243770D-02
END DATA
 TOTAL ENERGY =   -169.920412476333 THE VIRIAL(-V/T)=   2.00234517
