 Formamide B3LYP/6-311G** trial 7
GAUSSIAN             12 MOL ORBITALS    120 PRIMITIVES        6 NUCLEI
  H    1    (CENTRE  1)  -0.85808107  2.77141412  0.05255535  CHARGE =  1.0
  C    2    (CENTRE  2)  -0.05498168  0.79890740  0.00161406  CHARGE =  6.0
  N    3    (CENTRE  3)  -1.65858914 -1.04911498 -0.01444321  CHARGE =  7.0
  H    4    (CENTRE  4)  -0.91735420 -2.83477663  0.11756231  CHARGE =  1.0
  H    5    (CENTRE  5)  -3.69286434 -0.46928475  0.03291945  CHARGE =  1.0
  O    6    (CENTRE  6)   2.19048462  0.40720328 -0.00135916  CHARGE =  8.0
CENTRE ASSIGNMENTS    1  1  1  1  1  1  1  1  2  2  2  2  2  2  2  2  2  2  2  2
CENTRE ASSIGNMENTS    2  2  2  2  2  2  2  2  2  2  2  2  2  2  2  2  2  2  2  2
CENTRE ASSIGNMENTS    3  3  3  3  3  3  3  3  3  3  3  3  3  3  3  3  3  3  3  3
CENTRE ASSIGNMENTS    3  3  3  3  3  3  3  3  3  3  3  3  4  4  4  4  4  4  4  4
CENTRE ASSIGNMENTS    5  5  5  5  5  5  5  5  6  6  6  6  6  6  6  6  6  6  6  6
CENTRE ASSIGNMENTS    6  6  6  6  6  6  6  6  6  6  6  6  6  6  6  6  6  6  6  6
TYPE ASSIGNMENTS      1  1  1  1  1  2  3  4  1  1  1  1  1  1  1  1  1  2  2  2
TYPE ASSIGNMENTS      3  3  3  4  4  4  1  2  3  4  1  2  3  4  5  6  7  8  9 10
TYPE ASSIGNMENTS      1  1  1  1  1  1  1  1  1  2  2  2  3  3  3  4  4  4  1  2
TYPE ASSIGNMENTS      3  4  1  2  3  4  5  6  7  8  9 10  1  1  1  1  1  2  3  4
TYPE ASSIGNMENTS      1  1  1  1  1  2  3  4  1  1  1  1  1  1  1  1  1  2  2  2
TYPE ASSIGNMENTS      3  3  3  4  4  4  1  2  3  4  1  2  3  4  5  6  7  8  9 10
EXPONENTS  0.3386500D+02 0.5094790D+01 0.1158790D+01 0.3258400D+00 0.1027410D+00
EXPONENTS  0.7500000D+00 0.7500000D+00 0.7500000D+00 0.4563240D+04 0.6820240D+03
EXPONENTS  0.1549730D+03 0.4445530D+02 0.1302900D+02 0.1827730D+01 0.2096420D+02
EXPONENTS  0.4803310D+01 0.1459330D+01 0.2096420D+02 0.4803310D+01 0.1459330D+01
EXPONENTS  0.2096420D+02 0.4803310D+01 0.1459330D+01 0.2096420D+02 0.4803310D+01
EXPONENTS  0.1459330D+01 0.4834560D+00 0.4834560D+00 0.4834560D+00 0.4834560D+00
EXPONENTS  0.1455850D+00 0.1455850D+00 0.1455850D+00 0.1455850D+00 0.6260000D+00
EXPONENTS  0.6260000D+00 0.6260000D+00 0.6260000D+00 0.6260000D+00 0.6260000D+00
EXPONENTS  0.6293480D+04 0.9490440D+03 0.2187760D+03 0.6369160D+02 0.1882820D+02
EXPONENTS  0.2720230D+01 0.3063310D+02 0.7026140D+01 0.2112050D+01 0.3063310D+02
EXPONENTS  0.7026140D+01 0.2112050D+01 0.3063310D+02 0.7026140D+01 0.2112050D+01
EXPONENTS  0.3063310D+02 0.7026140D+01 0.2112050D+01 0.6840090D+00 0.6840090D+00
EXPONENTS  0.6840090D+00 0.6840090D+00 0.2008780D+00 0.2008780D+00 0.2008780D+00
EXPONENTS  0.2008780D+00 0.9130000D+00 0.9130000D+00 0.9130000D+00 0.9130000D+00
EXPONENTS  0.9130000D+00 0.9130000D+00 0.3386500D+02 0.5094790D+01 0.1158790D+01
EXPONENTS  0.3258400D+00 0.1027410D+00 0.7500000D+00 0.7500000D+00 0.7500000D+00
EXPONENTS  0.3386500D+02 0.5094790D+01 0.1158790D+01 0.3258400D+00 0.1027410D+00
EXPONENTS  0.7500000D+00 0.7500000D+00 0.7500000D+00 0.8588500D+04 0.1297230D+04
EXPONENTS  0.2992960D+03 0.8737710D+02 0.2567890D+02 0.3740040D+01 0.4211750D+02
EXPONENTS  0.9628370D+01 0.2853320D+01 0.4211750D+02 0.9628370D+01 0.2853320D+01
EXPONENTS  0.4211750D+02 0.9628370D+01 0.2853320D+01 0.4211750D+02 0.9628370D+01
EXPONENTS  0.2853320D+01 0.9056610D+00 0.9056610D+00 0.9056610D+00 0.9056610D+00
EXPONENTS  0.2556110D+00 0.2556110D+00 0.2556110D+00 0.2556110D+00 0.1292000D+01
EXPONENTS  0.1292000D+01 0.1292000D+01 0.1292000D+01 0.1292000D+01 0.1292000D+01
MO    1     MO 0.0        OCC NO =    2.0000000  ORB. ENERGY =  -19.074378
 -0.66207272D-04 -0.11942847D-03 -0.17606905D-03  0.11434881D-03  0.76315199D-04
 -0.50165853D-03  0.10737762D-03 -0.19256716D-05 -0.21327810D-04 -0.39703698D-04
 -0.65312209D-04 -0.87703335D-04 -0.82575996D-04 -0.67858193D-05  0.89217606D-04
  0.23706789D-03 -0.31958407D-06  0.10954623D-02  0.10250828D-02  0.79396626D-03
 -0.47026178D-04 -0.44004916D-04 -0.34083509D-04 -0.72096310D-05 -0.67464383D-05
 -0.52253772D-05  0.12239331D-03 -0.90338547D-03 -0.54993131D-05  0.60829093D-05
  0.58192801D-03  0.50278615D-03 -0.24991598D-03 -0.15710920D-05 -0.89948577D-03
  0.77354837D-03  0.12593740D-03  0.79828479D-03  0.32075256D-05  0.14806927D-04
 -0.87585593D-05 -0.16098251D-04 -0.26310872D-04 -0.35317965D-04 -0.34267263D-04
 -0.34149263D-05  0.79985527D-04  0.21833632D-03 -0.24708091D-06  0.40999076D-03
  0.40325884D-03  0.30911392D-03  0.30087464D-03  0.29593437D-03  0.22684546D-03
 -0.65996134D-06 -0.64912498D-06 -0.49758009D-06 -0.20266141D-03 -0.52163644D-03
 -0.41195595D-03 -0.38173200D-05 -0.20412864D-03 -0.29533221D-03  0.25812933D-03
 -0.70049601D-05 -0.11241271D-03  0.37744381D-04  0.74668332D-04 -0.73135606D-03
 -0.29579021D-04  0.34411293D-04 -0.44945685D-04 -0.81075604D-04 -0.11952681D-03
  0.37034359D-03 -0.26907049D-04 -0.49305585D-04  0.11352253D-03 -0.22406242D-04
 -0.72109138D-05 -0.13007460D-04 -0.19176424D-04 -0.20109994D-03  0.42486955D-04
 -0.10854316D-03  0.87741829D-04  0.17074738D-04  0.66430143D+00  0.12217529D+01
  0.19997478D+01  0.26949138D+01  0.26658438D+01  0.29671602D+00  0.63040426D+00
  0.16850993D+01 -0.24068238D-02 -0.63246211D-02 -0.64937772D-02 -0.49076309D-02
  0.80849425D-03  0.83011795D-03  0.62735637D-03  0.20338690D-04  0.20882662D-04
  0.15781939D-04  0.89623822D-02 -0.13861680D-02  0.24909455D-03  0.26413858D-05
 -0.21987664D-02  0.47020528D-03 -0.45940588D-04 -0.10962574D-05  0.10509816D-02
 -0.52494655D-03 -0.52603502D-03 -0.54767639D-03 -0.30094002D-05 -0.26990612D-05
MO    2     MO 0.0        OCC NO =    2.0000000  ORB. ENERGY =  -14.349847
 -0.59316489D-04 -0.10699848D-03 -0.15774397D-03 -0.25620015D-03  0.57729685D-04
  0.89079466D-06  0.61333380D-03  0.14119032D-04 -0.16060646D-04 -0.29898383D-04
 -0.49182559D-04 -0.66043923D-04 -0.62182843D-04 -0.51099781D-05  0.16827985D-03
  0.44715108D-03 -0.60279089D-06 -0.11694779D-02 -0.10943432D-02 -0.84761110D-03
 -0.13332666D-02 -0.12476090D-02 -0.96632140D-03 -0.20344736D-04 -0.19037660D-04
 -0.14745403D-04 -0.13313540D-03  0.11452387D-02  0.13205490D-02  0.19931703D-04
  0.64752179D-03 -0.21563974D-03 -0.28165546D-03 -0.44696491D-05  0.12770043D-03
 -0.36388775D-03  0.23618732D-03 -0.24536977D-02 -0.33573330D-04  0.13862339D-05
  0.55286072D+00  0.10161592D+01  0.16608037D+01  0.22293525D+01  0.21630297D+01
  0.21555813D+00  0.48363466D+00  0.13201765D+01 -0.14939814D-02 -0.11974576D-02
 -0.11777957D-02 -0.90282725D-03 -0.54723246D-03 -0.53824707D-03 -0.41258777D-03
  0.38333160D-03  0.37703742D-03  0.28901416D-03  0.83826151D-02  0.14638832D-02
  0.72409200D-03  0.75769120D-04 -0.15104675D-02 -0.20764571D-03 -0.38503832D-03
  0.36270398D-05  0.30098061D-03  0.10837826D-02 -0.13847632D-02  0.72097200D-03
  0.73252491D-04 -0.17744767D-03  0.31073773D-05  0.56052653D-05  0.82636385D-05
 -0.58145183D-03  0.77717576D-04  0.67726865D-03 -0.14888794D-02  0.11735109D-03
  0.41922259D-04  0.75621773D-04  0.11148643D-03 -0.11673189D-03  0.30588979D-04
 -0.73354454D-03  0.31471198D-03  0.16429884D-04  0.66698271D-05  0.12266842D-04
  0.20078193D-04  0.27057911D-04  0.26766037D-04  0.29791364D-05  0.89970752D-04
  0.24049592D-03 -0.34349982D-06 -0.58174198D-03 -0.59730105D-03 -0.45140648D-03
  0.40797642D-04  0.41888801D-04  0.31657196D-04  0.88178612D-06  0.90537006D-06
  0.68422768D-06 -0.26508270D-03  0.81259618D-03 -0.61100894D-04 -0.12816217D-05
 -0.18989436D-03  0.10321532D-03  0.10678330D-03  0.23131048D-05 -0.67994647D-03
  0.59010118D-03  0.89845288D-04 -0.21223515D-03 -0.10120264D-04  0.86119364D-05
MO    3     MO 0.0        OCC NO =    2.0000000  ORB. ENERGY =  -10.261997
  0.54997298D-04  0.99207279D-04  0.14625768D-03 -0.81667256D-03  0.28052168D-03
 -0.68911963D-03  0.17521791D-02  0.43447441D-04  0.43804507D+00  0.81546156D+00
  0.13414266D+01  0.18013108D+01  0.16960020D+01  0.13937178D+00  0.37097375D+00
  0.98574673D+00 -0.13288555D-02 -0.49649570D-03 -0.46459765D-03 -0.35984884D-03
 -0.96964695D-03 -0.90735064D-03 -0.70277814D-03 -0.74337669D-04 -0.69561743D-04
 -0.53878259D-04  0.72751695D-02  0.30324856D-03 -0.34027695D-03  0.28642263D-04
  0.38501061D-03  0.12358554D-03 -0.31616198D-03 -0.43340427D-05  0.12792388D-02
  0.48166516D-03 -0.17609039D-02  0.20770152D-03 -0.17756471D-04  0.69812207D-04
 -0.90236138D-04 -0.16585422D-03 -0.27107101D-03 -0.36386769D-03 -0.35304271D-03
 -0.35182700D-04  0.22393689D-04  0.61128006D-04 -0.69175679D-07  0.14989849D-02
  0.14743720D-02  0.11301647D-02  0.19880259D-02  0.19553832D-02  0.14988789D-02
  0.19723146D-04  0.19399298D-04  0.14870333D-04  0.13954207D-03 -0.11377124D-02
 -0.15280609D-02 -0.14628719D-04 -0.11672759D-02 -0.39401677D-03 -0.28769681D-03
 -0.82144554D-05 -0.35460508D-03 -0.86576717D-03  0.12203722D-02 -0.24015687D-02
 -0.40793840D-04 -0.39487248D-04 -0.22157432D-04 -0.39968847D-04 -0.58924615D-04
  0.15101996D-03 -0.28566271D-05  0.27363747D-03  0.13334150D-03  0.29522552D-05
 -0.16038446D-04 -0.28931068D-04 -0.42652021D-04  0.87191580D-04 -0.13891881D-04
  0.15572880D-03  0.33059493D-03  0.83205751D-05 -0.11775846D-03 -0.21657599D-03
 -0.35448851D-03 -0.47771822D-03 -0.47256507D-03 -0.52597841D-04 -0.96262737D-04
 -0.25731468D-03  0.36752202D-06 -0.29314858D-02 -0.30098903D-02 -0.22747055D-02
  0.60614245D-03  0.62235412D-03  0.47034018D-03  0.30150247D-05  0.30956635D-05
  0.23395281D-05  0.31170554D-03  0.20380036D-02 -0.45155209D-03 -0.96712238D-06
 -0.14578009D-02  0.72730092D-03 -0.62188529D-04 -0.69040508D-06 -0.24419850D-02
  0.95647610D-03  0.14855089D-02  0.13925624D-02  0.61663656D-05 -0.15113724D-04
MO    4     MO 0.0        OCC NO =    2.0000000  ORB. ENERGY =   -1.044979
  0.49421361D-02  0.89149084D-02  0.13142925D-01  0.50342155D-02 -0.75294202D-03
  0.35780604D-02 -0.36546834D-02 -0.39455228D-04 -0.58787575D-01 -0.10943853D+00
 -0.18002535D+00 -0.24174383D+00 -0.22761093D+00 -0.18704305D-01 -0.91862686D-01
 -0.24409636D+00  0.32905894D-03  0.15865810D+00  0.14846489D+00  0.11499179D+00
 -0.92677135D-01 -0.86722964D-01 -0.67170288D-01 -0.25049643D-03 -0.23440294D-03
 -0.18155414D-03  0.12563796D+00  0.42866189D-01 -0.27885249D-01 -0.65033472D-04
  0.99217927D-02 -0.11213347D-02  0.10654420D-02  0.28675391D-04  0.17713039D-01
 -0.50955778D-02 -0.12617461D-01 -0.35347856D-02 -0.23861055D-04 -0.18238301D-04
 -0.42543971D-01 -0.78195911D-01 -0.12780287D+00 -0.17155407D+00 -0.16645037D+00
 -0.16587720D-01 -0.69828417D-01 -0.19061048D+00  0.21570489D-03  0.98572136D-01
  0.96953612D-01  0.74318797D-01  0.63462124D-01  0.62420096D-01  0.47847484D-01
  0.43554701D-02  0.42839547D-02  0.32838215D-02  0.98804922D-01  0.32735063D-01
  0.21662572D-01  0.14486870D-02  0.22944189D-01  0.35236002D-02  0.62108832D-03
  0.15125455D-03  0.61861572D-02  0.13253074D-02 -0.75114646D-02  0.12458780D-01
  0.58453594D-03 -0.36131280D-03  0.67690405D-02  0.12210383D-01  0.18001323D-01
  0.61832871D-02 -0.67632712D-04 -0.93185710D-03  0.72644842D-02 -0.37917524D-03
  0.41523416D-02  0.74902319D-02  0.11042576D-01  0.59488751D-02 -0.26835973D-03
  0.59619724D-02 -0.71862432D-03 -0.10481786D-03 -0.11191020D+00 -0.20582015D+00
 -0.33688349D+00 -0.45399323D+00 -0.44909600D+00 -0.49985667D-01 -0.19900404D+00
 -0.53194685D+00  0.75977858D-03 -0.39761018D+00 -0.40824452D+00 -0.30852821D+00
  0.45480996D-01  0.46697415D-01  0.35291275D-01  0.80436758D-03  0.82588091D-03
  0.62415425D-03  0.28018133D+00 -0.12941443D+00  0.14537741D-01  0.24585987D-03
  0.72901749D-01 -0.10235199D-01  0.43011657D-03  0.47092960D-04  0.38973417D-01
 -0.21344616D-01 -0.17628801D-01 -0.14825110D-01 -0.24981929D-03 -0.18505737D-03
MO    5     MO 0.0        OCC NO =    2.0000000  ORB. ENERGY =   -0.915076
  0.24717124D-02  0.44586166D-02  0.65731761D-02  0.40301521D-02 -0.28773574D-03
 -0.30768490D-02 -0.45557835D-02 -0.67100090D-04 -0.14163465D-01 -0.26366605D-01
 -0.43372817D-01 -0.58242413D-01 -0.54837428D-01 -0.45063565D-02 -0.22631459D-01
 -0.60136024D-01  0.81067562D-04 -0.27582444D+00 -0.25810371D+00 -0.19991130D+00
 -0.11457229D+00 -0.10721144D+00 -0.83039403D-01  0.10763037D-03  0.10071551D-03
  0.78008054D-04  0.31566288D-01 -0.80162347D-01 -0.35825333D-01  0.48759838D-04
  0.20360902D-02 -0.14072190D-02  0.13306490D-04  0.19875761D-04 -0.80894288D-02
  0.10432963D-01 -0.23435347D-02  0.26623582D-01  0.47168182D-04 -0.35760227D-04
 -0.10036425D+00 -0.18446971D+00 -0.30149604D+00 -0.40470823D+00 -0.39266825D+00
 -0.39131609D-01 -0.16548607D+00 -0.45172698D+00  0.51119811D-03  0.69207455D-01
  0.68071090D-01  0.52179196D-01  0.89521897D-01  0.88051975D-01  0.67495338D-01
  0.12622726D-01  0.12415465D-01  0.95169474D-02  0.23512667D+00  0.18701514D-01
  0.28430265D-01  0.43202284D-02  0.63651998D-01  0.76545050D-03  0.42414607D-02
  0.38869083D-03  0.30212193D-02  0.12802408D-01 -0.15823627D-01  0.73399291D-02
  0.49335274D-03 -0.85595567D-03  0.17349932D-01  0.31296801D-01  0.46139734D-01
  0.21243217D-01  0.58437393D-04 -0.58392135D-02  0.15931693D-01 -0.93608350D-03
  0.15287462D-01  0.27576400D-01  0.40654883D-01  0.17843631D-01  0.39397352D-03
  0.15806488D-01 -0.30663358D-02 -0.14938380D-03  0.67818880D-01  0.12472939D+00
  0.20415530D+00  0.27512516D+00  0.27215738D+00  0.30291893D-01  0.12113948D+00
  0.32381134D+00 -0.46249906D-03  0.15870461D+00  0.16294927D+00  0.12314788D+00
 -0.77303690D-01 -0.79371227D-01 -0.59984301D-01 -0.31893889D-03 -0.32746912D-03
 -0.24748271D-03 -0.17276698D+00  0.50998416D-01 -0.25844422D-01 -0.89965854D-04
 -0.47954429D-01  0.35281856D-02 -0.23326322D-02 -0.28498284D-04 -0.14709025D-01
  0.73751636D-02  0.73338612D-02  0.23757781D-01  0.10998807D-03  0.53343955D-04
MO    6     MO 0.0        OCC NO =    2.0000000  ORB. ENERGY =   -0.623828
  0.25025224D-01  0.45141935D-01  0.66551110D-01  0.38339387D-01  0.25619678D-02
  0.36731916D-02 -0.16747943D-01 -0.55581072D-03 -0.53665516D-01 -0.99903339D-01
 -0.16434005D+00 -0.22068111D+00 -0.20777958D+00 -0.17074632D-01 -0.86606609D-01
 -0.23012998D+00  0.31023128D-03 -0.22174382D+00 -0.20749758D+00 -0.16071490D+00
  0.99593143D-01  0.93194644D-01  0.72182854D-01 -0.16426230D-02 -0.15370904D-02
 -0.11905359D-02  0.12684186D+00 -0.64682317D-01  0.32839409D-01 -0.67062195D-03
  0.28890228D-01 -0.75265818D-02  0.39920992D-02  0.71846421D-04  0.54580936D-02
 -0.98548875D-03 -0.44726049D-02  0.60555887D-02  0.25786663D-03  0.90398359D-03
  0.28815609D-01  0.52963152D-01  0.86562616D-01  0.11619590D+00  0.11273910D+00
  0.11235088D-01  0.48065883D-01  0.13120534D+00 -0.14847889D-03  0.77035652D-01
  0.75770750D-01  0.58081291D-01  0.63372719D+00  0.62332158D+00  0.47780076D+00
 -0.21951705D-01 -0.21591265D-01 -0.16550563D-01 -0.70445509D-01  0.25254166D-01
  0.20755087D+00 -0.73097417D-02 -0.29621277D-01  0.31275582D-02  0.25446304D-01
 -0.99561931D-03 -0.48350575D-02  0.30279316D-02  0.18071260D-02  0.36435041D-01
 -0.86805662D-03  0.45199991D-02 -0.33027226D-01 -0.59576403D-01 -0.87831322D-01
 -0.44154348D-01 -0.48724154D-02  0.10493159D-01 -0.14706777D-01  0.12879643D-02
 -0.35375448D-02 -0.63812260D-02 -0.94076092D-02 -0.49194740D-02 -0.10867380D-02
  0.99739811D-03  0.97408892D-02 -0.18457391D-03  0.32128412D-01  0.59089111D-01
  0.96716218D-01  0.13033737D+00  0.12893142D+00  0.14350435D-01  0.58123705D-01
  0.15536731D+00 -0.22191080D-03 -0.10145054D+00 -0.10416390D+00 -0.78721209D-01
  0.11284947D+00  0.11586770D+00  0.87566280D-01 -0.19447585D-02 -0.19967724D-02
 -0.15090480D-02 -0.86038592D-01 -0.27705888D-01  0.35527613D-01 -0.59124692D-03
 -0.30332068D-01 -0.49156961D-02  0.53517508D-02 -0.16417948D-03 -0.36444930D-03
  0.58941085D-03 -0.22496155D-03 -0.10745181D-01  0.37093078D-03  0.13025536D-03
MO    7     MO 0.0        OCC NO =    2.0000000  ORB. ENERGY =   -0.552004
 -0.10542344D-01 -0.19016885D-01 -0.28035901D-01 -0.17743745D-01 -0.27126559D-02
 -0.35399022D-02  0.73535381D-02  0.26160139D-03 -0.16974025D-01 -0.31598724D-01
 -0.51979604D-01 -0.69799884D-01 -0.65719222D-01 -0.54005859D-02 -0.27333881D-01
 -0.72631240D-01  0.97911986D-04 -0.44606061D-01 -0.41740283D-01 -0.32329462D-01
 -0.29454522D+00 -0.27562175D+00 -0.21347970D+00 -0.31867316D-02 -0.29819956D-02
 -0.23096709D-02  0.43419098D-01 -0.10887684D-01 -0.90795986D-01 -0.94276902D-03
  0.38036164D-02 -0.11214530D-02 -0.62331679D-02 -0.14080457D-05 -0.13882554D-01
  0.15626088D-01 -0.17435340D-02 -0.68975974D-03  0.16995856D-03 -0.23475804D-04
  0.11699503D-01  0.21503712D-01  0.35145521D-01  0.47177011D-01  0.45773505D-01
  0.45615883D-02  0.19473510D-01  0.53156798D-01 -0.60155040D-04  0.79318196D+00
  0.78015816D+00  0.59802223D+00 -0.36185884D-02 -0.35591723D-02 -0.27282470D-02
 -0.47606431D-03 -0.46824748D-03 -0.35893030D-03 -0.28023316D-01  0.26065170D+00
 -0.31218305D-03 -0.36258119D-03 -0.14769412D-01  0.36669500D-01 -0.17609124D-02
 -0.10289599D-03 -0.57005634D-02  0.62605193D-02 -0.55995589D-03  0.32407113D-01
  0.37305353D-02 -0.78397734D-03  0.10536308D-01  0.19005997D-01  0.28019849D-01
  0.14552263D-01  0.10704135D-02  0.93457087D-02  0.10849752D-01 -0.57905833D-03
 -0.39210167D-01 -0.70729548D-01 -0.10427400D+00 -0.62171217D-01 -0.94369934D-02
 -0.20955792D-01  0.66794946D-02  0.49675012D-03  0.27816508D-01  0.51158853D-01
  0.83736084D-01  0.11284499D+00  0.11162773D+00  0.12424485D-01  0.50033206D-01
  0.13374104D+00 -0.19102205D-03 -0.23080570D+00 -0.23697875D+00 -0.17909518D+00
 -0.26389262D+00 -0.27095060D+00 -0.20476919D+00 -0.22976532D-02 -0.23591055D-02
 -0.17828790D-02 -0.73113349D-01 -0.73229412D-01 -0.85433316D-01 -0.83747359D-03
 -0.30923303D-01 -0.10545313D-01 -0.12098899D-01 -0.98400955D-04  0.15204238D-01
 -0.86473676D-02 -0.65568701D-02  0.32009949D-01  0.35944790D-03 -0.12642998D-03
MO    8     MO 0.0        OCC NO =    2.0000000  ORB. ENERGY =   -0.485502
 -0.31343378D-01 -0.56538982D-01 -0.83353363D-01 -0.51857133D-01 -0.57041553D-02
 -0.87582610D-02  0.13697302D-01 -0.57038748D-04  0.24892304D-01  0.46339334D-01
  0.76227769D-01  0.10236110D+00  0.96376834D-01  0.79199260D-02  0.40945127D-01
  0.10879887D+00 -0.14666848D-03 -0.12800768D+00 -0.11978365D+00 -0.92777067D-01
 -0.37874838D+00 -0.35441517D+00 -0.27450824D+00 -0.25236797D-01 -0.23615424D-01
 -0.18291059D-01 -0.62303252D-01 -0.38245337D-01 -0.11606351D+00 -0.83167837D-02
 -0.20122317D-01  0.28763476D-02 -0.14928978D-01 -0.99463369D-03  0.78628032D-02
 -0.67269858D-02 -0.11358175D-02  0.95731577D-02  0.25383323D-03  0.12186397D-02
 -0.62082528D-02 -0.11410782D-01 -0.18649705D-01 -0.25034124D-01 -0.24289364D-01
 -0.24205723D-02 -0.10667652D-01 -0.29119467D-01  0.32953127D-04 -0.76793836D-01
 -0.75532905D-01 -0.57898973D-01  0.58709224D+00  0.57745236D+00  0.44264019D+00
 -0.46319724D-01 -0.45559169D-01 -0.34922913D-01  0.17035143D-01 -0.27847124D-01
  0.19149239D+00 -0.15418150D-01  0.37891150D-02 -0.50098070D-02  0.29998506D-01
 -0.26265285D-02  0.11974951D-01 -0.11140579D-01 -0.83437181D-03  0.26824617D-01
 -0.28161726D-02  0.27691772D-02 -0.29350287D-01 -0.52943731D-01 -0.78053015D-01
 -0.43741960D-01 -0.68851314D-02  0.83981313D-02 -0.79134854D-02  0.36171912D-03
  0.12858789D-01  0.23195421D-01  0.34196165D-01  0.22397770D-01  0.35804837D-02
  0.99910413D-02  0.41068968D-02 -0.89061479D-03 -0.38914344D-01 -0.71569488D-01
 -0.11714392D+00 -0.15786629D+00 -0.15616339D+00 -0.17381430D-01 -0.70205856D-01
 -0.18766345D+00  0.26803931D-03  0.36890616D+00  0.37877279D+00  0.28625513D+00
 -0.45254753D+00 -0.46465120D+00 -0.35115720D+00 -0.32539257D-01 -0.33409540D-01
 -0.25249048D-01  0.10402153D+00  0.11335074D+00 -0.15046382D+00 -0.10861739D-01
  0.45012583D-01  0.18933070D-01 -0.21372631D-01 -0.15747808D-02 -0.10616259D-01
 -0.13173216D-02  0.11933581D-01  0.59693032D-01  0.41713269D-02 -0.72304362D-03
MO    9     MO 0.0        OCC NO =    2.0000000  ORB. ENERGY =   -0.418270
  0.12187083D-02  0.21983759D-02  0.32409855D-02  0.26859655D-02  0.11389299D-02
 -0.94544866D-03 -0.12479415D-02  0.10479327D-01  0.25162621D-02  0.46842554D-02
  0.77055561D-02  0.10347269D-01  0.97423434D-02  0.80059321D-03  0.41318951D-02
  0.10979219D-01 -0.14800754D-04 -0.57326721D-01 -0.53643687D-01 -0.41549109D-01
 -0.32509031D-02 -0.30420443D-02 -0.23561809D-02  0.44204049D+00  0.41364099D+00
  0.32038093D+00 -0.74345265D-02 -0.17413208D-01 -0.62592388D-03  0.14853594D+00
 -0.40506904D-03  0.59738060D-04 -0.11607886D-02  0.23030231D-01 -0.11637503D-02
  0.12580724D-02 -0.94322138D-04  0.11240894D-02  0.12868187D-01 -0.26333326D-01
  0.18666393D-02  0.34308871D-02  0.56074187D-02  0.75270259D-02  0.73030985D-02
  0.72779501D-03  0.31525810D-02  0.86055937D-02 -0.97385442D-05  0.27851994D-01
  0.27394673D-01  0.20999105D-01  0.37068392D-01  0.36459741D-01  0.27947840D-01
  0.60714279D+00  0.59717369D+00  0.45775737D+00 -0.48843901D-02  0.87580027D-02
  0.11708853D-01  0.20333457D+00 -0.31302300D-02  0.48067470D-03  0.35243955D-02
  0.38481493D-01 -0.20998986D-02  0.70825053D-03  0.13916481D-02  0.13314022D-02
  0.25763679D-01  0.29425532D-01  0.45410541D-03  0.81914137D-03  0.12076303D-02
  0.18518181D-02  0.48734020D-03  0.36546576D-03  0.18999054D-02  0.12551047D-01
 -0.99596246D-03 -0.17965742D-02 -0.26486239D-02 -0.28093189D-02 -0.53949034D-03
 -0.18147066D-03  0.99485357D-03  0.10661639D-01 -0.78874631D-02 -0.14506263D-01
 -0.23743645D-01 -0.31997573D-01 -0.31652414D-01 -0.35230041D-02 -0.14234755D-01
 -0.38050149D-01  0.54346948D-04  0.17438232D+00  0.17904629D+00  0.13531309D+00
 -0.50841686D-01 -0.52201480D-01 -0.39450937D-01  0.82942982D+00  0.85161345D+00
  0.64360146D+00  0.21059108D-01  0.53754819D-01 -0.16317610D-01  0.27499189D+00
  0.10300319D-01  0.91855524D-02 -0.25132897D-02  0.43859359D-01 -0.75666427D-02
  0.32019437D-02  0.43646990D-02  0.57920604D-02 -0.86339495D-01  0.11544342D-01
MO   10     MO 0.0        OCC NO =    2.0000000  ORB. ENERGY =   -0.405852
  0.18824052D-01  0.33955904D-01  0.50059953D-01  0.37123455D-01  0.11044590D-01
 -0.49551607D-02 -0.10030289D-01 -0.16987348D-02  0.14047396D-01  0.26150532D-01
  0.43017379D-01  0.57765120D-01  0.54388038D-01  0.44694271D-02  0.22812349D-01
  0.60616683D-01 -0.81715523D-04 -0.38127389D+00 -0.35677842D+00 -0.27633868D+00
  0.16722971D+00  0.15648580D+00  0.12120430D+00 -0.54426620D-01 -0.50929906D-01
 -0.39447181D-01 -0.41617495D-01 -0.11921483D+00  0.54599032D-01 -0.18245550D-01
  0.31113234D-02 -0.48329904D-03  0.15416585D-02 -0.30203985D-02 -0.14910454D-01
  0.13355765D-01  0.15546886D-02  0.96885726D-02 -0.21564144D-02  0.34491765D-02
 -0.12598375D-02 -0.23155841D-02 -0.37845749D-02 -0.50801616D-02 -0.49290279D-02
 -0.49120547D-03 -0.20396311D-02 -0.55675767D-02  0.63005638D-05  0.25645957D+00
  0.25224859D+00  0.19335857D+00 -0.82531034D-01 -0.81175899D-01 -0.62224553D-01
 -0.68613982D-01 -0.67487362D-01 -0.51731745D-01  0.29585950D-02  0.83659996D-01
 -0.29809838D-01 -0.23056121D-01 -0.36637477D-02  0.61852343D-02  0.42529398D-02
 -0.48050172D-02 -0.16948179D-01  0.16781960D-01  0.16621920D-03 -0.73720754D-03
 -0.21385154D-02 -0.40919656D-02  0.11792185D-01  0.21271420D-01  0.31359679D-01
  0.30046579D-01  0.67954581D-02 -0.18003037D-03  0.84400824D-02 -0.24716910D-02
 -0.16667779D-01 -0.30066295D-01 -0.44325644D-01 -0.36677656D-01 -0.74253644D-02
 -0.80440627D-02  0.40251199D-02 -0.77981164D-03 -0.48617407D-01 -0.89414919D-01
 -0.14635307D+00 -0.19722932D+00 -0.19510181D+00 -0.21715388D-01 -0.87735668D-01
 -0.23452144D+00  0.33496648D-03  0.12817681D+01  0.13160498D+01  0.99459632D+00
 -0.91991793D-01 -0.94452173D-01 -0.71381630D-01 -0.11288967D+00 -0.11590898D+00
 -0.87597476D-01  0.12917717D+00  0.39426499D+00 -0.24803898D-01 -0.37301044D-01
  0.67502074D-01  0.67161911D-01 -0.46432271D-02 -0.60581581D-02 -0.56367346D-01
  0.28259130D-01  0.28108216D-01  0.10887110D-01  0.11450448D-01 -0.16230339D-02
MO   11     MO 0.0        OCC NO =    2.0000000  ORB. ENERGY =   -0.275497
 -0.10317881D-03 -0.18611985D-03 -0.27438971D-03 -0.15975201D-03 -0.49781012D-04
 -0.20465767D-03  0.14647310D-03 -0.10392172D-02 -0.47206186D-03 -0.87878698D-03
 -0.14455963D-02 -0.19411932D-02 -0.18277066D-02 -0.15019482D-03 -0.77088475D-03
 -0.20483851D-02  0.27613662D-05 -0.26397350D-02 -0.24701416D-02 -0.19132201D-02
 -0.46215849D-02 -0.43246648D-02 -0.33496201D-02 -0.77369205D-01 -0.72398513D-01
 -0.56075447D-01  0.11339703D-02 -0.57712443D-03 -0.76883168D-03 -0.26800585D-01
 -0.82746471D-03 -0.66269079D-03  0.66549244D-04 -0.88296136D-02  0.56879146D-03
 -0.40943548D-03 -0.15935597D-03 -0.11529725D-02 -0.66493402D-01 -0.16143401D-01
  0.31041333D-02  0.57054038D-02  0.93248732D-02  0.12517090D-01  0.12144709D-01
  0.12102888D-02  0.52514473D-02  0.14334865D-01 -0.16222090D-04 -0.46812327D-02
 -0.46043683D-02 -0.35294313D-02  0.24337479D-01  0.23937866D-01  0.18349325D-01
  0.84783117D+00  0.83391004D+00  0.63922519D+00 -0.83244070D-02 -0.18344939D-02
  0.76552588D-02  0.27297072D+00 -0.40627410D-02  0.92161605D-03  0.14067170D-02
  0.73154342D-01 -0.89800560D-03 -0.19887075D-03  0.10968764D-02 -0.45445854D-03
 -0.87657771D-03  0.34759249D-02  0.10985794D-02  0.19816805D-02  0.29215193D-02
 -0.18430172D-03  0.34577919D-03 -0.41944785D-03  0.37472509D-03  0.16881404D-01
  0.11181487D-02  0.20169808D-02  0.29735614D-02  0.28545061D-02  0.78579306D-03
  0.97202418D-03  0.36884694D-03  0.18106498D-01 -0.10820698D-03 -0.19900934D-03
 -0.32573567D-03 -0.43897012D-03 -0.43423495D-03 -0.48331589D-04 -0.17761926D-03
 -0.47478438D-03  0.67813353D-06 -0.13104977D-01 -0.13455478D-01 -0.10168892D-01
 -0.27379913D-01 -0.28112207D-01 -0.21245622D-01 -0.11619826D+01 -0.11930606D+01
 -0.90164796D+00  0.12387498D-03 -0.41115490D-02 -0.91874364D-02 -0.37365300D+00
  0.99503981D-03 -0.91912494D-03 -0.16193904D-02 -0.77777957D-01  0.52584894D-03
 -0.35930949D-03 -0.16653945D-03  0.16948489D-02  0.62846341D-01 -0.12558795D-01
MO   12     MO 0.0        OCC NO =    2.0000000  ORB. ENERGY =   -0.255374
 -0.21391195D-01 -0.38586664D-01 -0.56886913D-01 -0.55721799D-01 -0.19920475D-01
  0.74630926D-03 -0.11340722D-02  0.20341645D-04  0.22853269D-02  0.42543481D-02
  0.69983626D-02  0.93976265D-02  0.88482196D-02  0.72711711D-03  0.39018598D-02
  0.10367972D-01 -0.13976751D-04  0.12157673D-01  0.11376587D-01  0.88116060D-02
 -0.72323148D-01 -0.67676648D-01 -0.52418179D-01  0.16692784D-04  0.15620333D-04
  0.12098552D-04 -0.32105921D-02  0.56677692D-02 -0.26568485D-01 -0.19535980D-03
 -0.10208228D-01  0.11707944D-01  0.12670226D-01  0.19968992D-03  0.14897242D-01
 -0.14274223D-01 -0.62301903D-03  0.82680770D-01 -0.38192344D-03 -0.10532784D-02
 -0.22793345D-01 -0.41894217D-01 -0.68471624D-01 -0.91911754D-01 -0.89177400D-01
 -0.88870315D-02 -0.38009441D-01 -0.10375429D+00  0.11741383D-03  0.19337801D+00
  0.19020280D+00  0.14579801D+00  0.18115725D+00  0.17818271D+00  0.13658413D+00
  0.26580631D-01  0.26144185D-01  0.20040557D-01  0.53631622D-01  0.65243526D-01
  0.51252408D-01  0.88928429D-02  0.66289978D-01  0.12464731D-01  0.14562714D-01
  0.26407293D-02  0.54742125D-03 -0.31447350D-02  0.25973137D-02  0.16605918D-02
  0.10949013D-02  0.11639200D-03 -0.27718011D-02 -0.49999337D-02 -0.73712202D-02
 -0.10242219D-01 -0.98342725D-02 -0.12664349D-02 -0.24300851D-02  0.94427963D-03
 -0.73518162D-02 -0.13261628D-01 -0.19551135D-01 -0.22880255D-01 -0.70733006D-02
 -0.18253106D-02  0.38646416D-02  0.63538408D-03 -0.24212524D-02 -0.44530571D-02
 -0.72887006D-02 -0.98224484D-02 -0.97164936D-02 -0.10814735D-02 -0.47270263D-02
 -0.12635557D-01  0.18047339D-04  0.25898194D+00  0.26590858D+00  0.20095872D+00
  0.15408678D+01  0.15820793D+01  0.11956464D+01 -0.41008587D-02 -0.42105388D-02
 -0.31820880D-02  0.10923587D-01  0.83012961D-01  0.49315544D+00 -0.12870077D-02
 -0.68540941D-02  0.20427328D-01  0.10174310D+00 -0.40785633D-03 -0.97676563D-02
  0.81102574D-02  0.16573990D-02 -0.62576761D-01  0.29791010D-03  0.94859420D-04
END DATA
 TOTAL ENERGY =   -169.929019929495 THE VIRIAL(-V/T)=   2.00286037
