 Formamide B3LYP/6-311G** trial 4
GAUSSIAN             12 MOL ORBITALS    120 PRIMITIVES        6 NUCLEI
  H    1    (CENTRE  1)  -0.94774487  2.80429089  0.07628581  CHARGE =  1.0
  C    2    (CENTRE  2)   0.05776236  0.77927661 -0.00281667  CHARGE =  6.0
  N    3    (CENTRE  3)  -1.82142564 -1.08698628 -0.00839004  CHARGE =  7.0
  H    4    (CENTRE  4)  -1.04759562 -2.94577918  0.10396567  CHARGE =  1.0
  H    5    (CENTRE  5)  -3.74447955 -0.68703484 -0.00901565  CHARGE =  1.0
  O    6    (CENTRE  6)   2.26556515  0.47373057 -0.00133069  CHARGE =  8.0
CENTRE ASSIGNMENTS    1  1  1  1  1  1  1  1  2  2  2  2  2  2  2  2  2  2  2  2
CENTRE ASSIGNMENTS    2  2  2  2  2  2  2  2  2  2  2  2  2  2  2  2  2  2  2  2
CENTRE ASSIGNMENTS    3  3  3  3  3  3  3  3  3  3  3  3  3  3  3  3  3  3  3  3
CENTRE ASSIGNMENTS    3  3  3  3  3  3  3  3  3  3  3  3  4  4  4  4  4  4  4  4
CENTRE ASSIGNMENTS    5  5  5  5  5  5  5  5  6  6  6  6  6  6  6  6  6  6  6  6
CENTRE ASSIGNMENTS    6  6  6  6  6  6  6  6  6  6  6  6  6  6  6  6  6  6  6  6
TYPE ASSIGNMENTS      1  1  1  1  1  2  3  4  1  1  1  1  1  1  1  1  1  2  2  2
TYPE ASSIGNMENTS      3  3  3  4  4  4  1  2  3  4  1  2  3  4  5  6  7  8  9 10
TYPE ASSIGNMENTS      1  1  1  1  1  1  1  1  1  2  2  2  3  3  3  4  4  4  1  2
TYPE ASSIGNMENTS      3  4  1  2  3  4  5  6  7  8  9 10  1  1  1  1  1  2  3  4
TYPE ASSIGNMENTS      1  1  1  1  1  2  3  4  1  1  1  1  1  1  1  1  1  2  2  2
TYPE ASSIGNMENTS      3  3  3  4  4  4  1  2  3  4  1  2  3  4  5  6  7  8  9 10
EXPONENTS  0.3386500D+02 0.5094790D+01 0.1158790D+01 0.3258400D+00 0.1027410D+00
EXPONENTS  0.7500000D+00 0.7500000D+00 0.7500000D+00 0.4563240D+04 0.6820240D+03
EXPONENTS  0.1549730D+03 0.4445530D+02 0.1302900D+02 0.1827730D+01 0.2096420D+02
EXPONENTS  0.4803310D+01 0.1459330D+01 0.2096420D+02 0.4803310D+01 0.1459330D+01
EXPONENTS  0.2096420D+02 0.4803310D+01 0.1459330D+01 0.2096420D+02 0.4803310D+01
EXPONENTS  0.1459330D+01 0.4834560D+00 0.4834560D+00 0.4834560D+00 0.4834560D+00
EXPONENTS  0.1455850D+00 0.1455850D+00 0.1455850D+00 0.1455850D+00 0.6260000D+00
EXPONENTS  0.6260000D+00 0.6260000D+00 0.6260000D+00 0.6260000D+00 0.6260000D+00
EXPONENTS  0.6293480D+04 0.9490440D+03 0.2187760D+03 0.6369160D+02 0.1882820D+02
EXPONENTS  0.2720230D+01 0.3063310D+02 0.7026140D+01 0.2112050D+01 0.3063310D+02
EXPONENTS  0.7026140D+01 0.2112050D+01 0.3063310D+02 0.7026140D+01 0.2112050D+01
EXPONENTS  0.3063310D+02 0.7026140D+01 0.2112050D+01 0.6840090D+00 0.6840090D+00
EXPONENTS  0.6840090D+00 0.6840090D+00 0.2008780D+00 0.2008780D+00 0.2008780D+00
EXPONENTS  0.2008780D+00 0.9130000D+00 0.9130000D+00 0.9130000D+00 0.9130000D+00
EXPONENTS  0.9130000D+00 0.9130000D+00 0.3386500D+02 0.5094790D+01 0.1158790D+01
EXPONENTS  0.3258400D+00 0.1027410D+00 0.7500000D+00 0.7500000D+00 0.7500000D+00
EXPONENTS  0.3386500D+02 0.5094790D+01 0.1158790D+01 0.3258400D+00 0.1027410D+00
EXPONENTS  0.7500000D+00 0.7500000D+00 0.7500000D+00 0.8588500D+04 0.1297230D+04
EXPONENTS  0.2992960D+03 0.8737710D+02 0.2567890D+02 0.3740040D+01 0.4211750D+02
EXPONENTS  0.9628370D+01 0.2853320D+01 0.4211750D+02 0.9628370D+01 0.2853320D+01
EXPONENTS  0.4211750D+02 0.9628370D+01 0.2853320D+01 0.4211750D+02 0.9628370D+01
EXPONENTS  0.2853320D+01 0.9056610D+00 0.9056610D+00 0.9056610D+00 0.9056610D+00
EXPONENTS  0.2556110D+00 0.2556110D+00 0.2556110D+00 0.2556110D+00 0.1292000D+01
EXPONENTS  0.1292000D+01 0.1292000D+01 0.1292000D+01 0.1292000D+01 0.1292000D+01
MO    1     MO 0.0        OCC NO =    2.0000000  ORB. ENERGY =  -19.101583
 -0.53501224D-04 -0.96508575D-04 -0.14227908D-03  0.16658758D-03  0.73746174D-04
 -0.47690915D-03  0.63143056D-04 -0.56071823D-05 -0.34957947D-04 -0.65077464D-04
 -0.10705182D-03 -0.14375262D-03 -0.13534851D-03 -0.11122488D-04  0.14489182D-03
  0.38500471D-03 -0.51901324D-06  0.98028154D-03  0.91730200D-03  0.71048585D-03
 -0.81709277D-04 -0.76459751D-04 -0.59221033D-04 -0.10699759D-04 -0.10012338D-04
 -0.77549427D-05  0.72461203D-04 -0.89651609D-03  0.92682429D-04  0.85869067D-05
  0.54545334D-03  0.57941797D-03 -0.23535338D-03 -0.21637786D-05 -0.97751119D-03
  0.71195547D-03  0.26555572D-03  0.51948327D-03 -0.33649265D-05  0.76665339D-05
 -0.27036900D-05 -0.49693881D-05 -0.81219342D-05 -0.10902344D-04 -0.10578002D-04
 -0.10541576D-05  0.38211809D-04  0.10430670D-03 -0.11803896D-06  0.42219400D-03
  0.41526171D-03  0.31831460D-03  0.15796906D-03  0.15537525D-03  0.11910131D-03
  0.32223784D-05  0.31694679D-05  0.24295231D-05 -0.64261769D-04 -0.39988398D-03
 -0.17677022D-03 -0.47033387D-05  0.17640710D-04 -0.38883417D-03  0.33540432D-03
 -0.72281359D-05 -0.85757113D-04  0.47456391D-04  0.38300722D-04 -0.43871103D-03
 -0.15408348D-04  0.38112049D-04 -0.36069449D-04 -0.65064140D-04 -0.95921693D-04
  0.42378202D-03 -0.32171143D-04 -0.48604008D-04  0.18014141D-03 -0.23541213D-04
  0.16378908D-04  0.29545214D-04  0.43557432D-04 -0.44046298D-03  0.35747271D-04
 -0.25684293D-03 -0.51817819D-05  0.68256999D-05  0.66429051D+00  0.12217328D+01
  0.19997149D+01  0.26948695D+01  0.26657999D+01  0.29671114D+00  0.63037349D+00
  0.16850170D+01 -0.24067063D-02 -0.65662327D-02 -0.67418508D-02 -0.50951110D-02
  0.47528301D-03  0.48799476D-03  0.36879895D-03  0.15241720D-07  0.15649370D-07
  0.11826912D-07  0.91193698D-02 -0.14883367D-02  0.22923959D-03 -0.35755332D-05
 -0.23251537D-02  0.48249472D-03 -0.21216445D-04  0.17644661D-05  0.11481237D-02
 -0.56596915D-03 -0.58215454D-03 -0.51753632D-03  0.37416243D-05 -0.35238260D-05
MO    2     MO 0.0        OCC NO =    2.0000000  ORB. ENERGY =  -14.343824
 -0.34821468D-04 -0.62812961D-04 -0.92602861D-04 -0.10848110D-03  0.41924655D-04
 -0.14745393D-04  0.31115557D-03  0.82259155D-05  0.16375911D-05  0.30485278D-05
  0.50147995D-05  0.67340341D-05  0.63403470D-05  0.52102852D-06  0.48037957D-04
  0.12764585D-03 -0.17207552D-06 -0.97026678D-03 -0.90793065D-03 -0.70322738D-03
 -0.87127052D-03 -0.81529454D-03 -0.63147713D-03 -0.12987896D-04 -0.12153470D-04
 -0.94133325D-05  0.36457060D-04  0.67971504D-03  0.50013846D-03  0.98578463D-05
  0.65765795D-03 -0.17923008D-03 -0.29775303D-03 -0.15048093D-05  0.62402420D-04
 -0.11726617D-03  0.54863745D-04 -0.13776402D-02 -0.15120223D-04  0.10359756D-04
  0.55291174D+00  0.10162530D+01  0.16609570D+01  0.22295582D+01  0.21632293D+01
  0.21557802D+00  0.48372351D+00  0.13204190D+01 -0.14942559D-02 -0.56354022D-03
 -0.55428706D-03 -0.42488306D-03 -0.43518418D-03 -0.42803859D-03 -0.32810859D-03
  0.18665481D-03  0.18359000D-03  0.14072903D-03  0.80081201D-02  0.77910070D-04
  0.20047039D-03  0.38148603D-04 -0.14946457D-02 -0.40197522D-03 -0.27182958D-03
 -0.52640676D-06  0.91205617D-03  0.26877870D-03 -0.11808349D-02 -0.40151657D-03
  0.49029201D-04 -0.11920290D-03  0.20363343D-04  0.36732565D-04  0.54153483D-04
 -0.30631472D-03  0.61350089D-04  0.61574568D-03 -0.11389117D-02  0.71375651D-04
  0.39287581D-05  0.70869191D-05  0.10447987D-04 -0.56444316D-03  0.71518533D-04
 -0.15548775D-02  0.49364803D-03  0.14818651D-05  0.43811574D-05  0.80576250D-05
  0.13188606D-04  0.17773319D-04  0.17581598D-04  0.19568821D-05  0.50441365D-04
  0.13483207D-03 -0.19258036D-06 -0.45140899D-03 -0.46348221D-03 -0.35027374D-03
 -0.22965849D-04 -0.23580086D-04 -0.17820500D-04 -0.33090114D-05 -0.33975131D-05
 -0.25676490D-05 -0.12382232D-03  0.57638049D-03 -0.42451886D-05  0.29518042D-05
 -0.24371440D-03  0.12016935D-03  0.14345585D-03  0.40536742D-06 -0.48468382D-03
  0.42030653D-03  0.64377295D-04 -0.51880330D-03 -0.91503570D-05 -0.69308482D-06
MO    3     MO 0.0        OCC NO =    2.0000000  ORB. ENERGY =  -10.282557
  0.71779689D-04  0.12948032D-03  0.19088812D-03 -0.44718671D-03  0.25438346D-03
 -0.54230904D-03  0.12233755D-02  0.43706842D-04  0.43813304D+00  0.81562532D+00
  0.13416960D+01  0.18016725D+01  0.16963426D+01  0.13939976D+00  0.37107397D+00
  0.98601301D+00 -0.13292144D-02 -0.34544523D-03 -0.32325163D-03 -0.25037088D-03
 -0.11515408D-02 -0.10775585D-02 -0.83461071D-03 -0.90838355D-04 -0.85002319D-04
 -0.65837582D-04  0.68776535D-02  0.14521296D-02 -0.63739957D-04  0.42020242D-04
  0.13018132D-03  0.33060359D-03 -0.26458842D-03 -0.55472723D-05  0.17702350D-02
 -0.27036081D-03 -0.14998742D-02 -0.48011709D-03 -0.25132608D-04  0.47696552D-04
 -0.38263880D-04 -0.70329094D-04 -0.11494539D-03 -0.15429505D-03 -0.14970481D-03
 -0.14918930D-04 -0.19542427D-04 -0.53344923D-04  0.60367931D-07  0.10621184D-02
  0.10446787D-02  0.80078776D-03  0.14234554D-02  0.14000827D-02  0.10732190D-02
  0.85693635D-05  0.84286572D-05  0.64609007D-05  0.23522222D-03 -0.57912749D-03
 -0.80298190D-03 -0.60676907D-05 -0.41626368D-03 -0.44179250D-03  0.52041683D-04
 -0.56201848D-05  0.10940964D-04 -0.72829506D-03  0.71735410D-03 -0.16428973D-02
 -0.23441690D-04  0.94354115D-05 -0.25943211D-04 -0.46797851D-04 -0.68992367D-04
  0.28150827D-03  0.43493252D-05  0.14588005D-03  0.18575852D-03 -0.12701268D-04
 -0.64314361D-05 -0.11601393D-04 -0.17103511D-04 -0.29093705D-03  0.88314104D-06
 -0.16151068D-03  0.22747839D-03  0.40503600D-05 -0.14626480D-03 -0.26900355D-03
 -0.44030118D-03 -0.59336169D-03 -0.58696109D-03 -0.65330445D-04 -0.77404928D-04
 -0.20690690D-03  0.29552469D-06 -0.34717529D-02 -0.35646072D-02 -0.26939292D-02
  0.55686604D-03  0.57175978D-03  0.43210383D-03 -0.86264347D-06 -0.88571543D-06
 -0.66937381D-06  0.14091316D-03  0.28548964D-02 -0.46467828D-03  0.23749141D-05
 -0.18907952D-02  0.86463055D-03 -0.63790133D-04  0.27471483D-05 -0.29241785D-02
  0.12831329D-02  0.16410456D-02  0.13154927D-02 -0.16781443D-04 -0.11244447D-04
MO    4     MO 0.0        OCC NO =    2.0000000  ORB. ENERGY =   -1.063211
  0.36247176D-02  0.65384734D-02  0.96394333D-02  0.33516731D-02 -0.60663788D-03
  0.41448463D-02 -0.22829163D-02 -0.32979166D-04 -0.55038519D-01 -0.10245931D+00
 -0.16854460D+00 -0.22632711D+00 -0.21309551D+00 -0.17511477D-01 -0.85580099D-01
 -0.22740235D+00  0.30655425D-03  0.22787983D+00  0.21323938D+00  0.16516214D+00
 -0.55511162D-01 -0.51944770D-01 -0.40233233D-01  0.36537919D-03  0.34190490D-03
  0.26481856D-03  0.11716699D+00  0.58517774D-01 -0.17426317D-01  0.70706391D-04
  0.86902925D-02 -0.14682987D-02  0.97429207D-03  0.17122372D-04  0.20392554D-01
 -0.86326410D-02 -0.11759913D-01 -0.58710270D-02  0.49217993D-04 -0.59030440D-04
 -0.21132214D-01 -0.38841055D-01 -0.63481556D-01 -0.85213420D-01 -0.82678339D-01
 -0.82393634D-02 -0.34672315D-01 -0.94644944D-01  0.10710522D-03  0.53053034D-01
  0.52181919D-01  0.39999515D-01  0.28378440D-01  0.27912475D-01  0.21396021D-01
  0.11617237D-02  0.11426486D-02  0.87588556D-03  0.49416803D-01  0.19246223D-01
  0.98416997D-02  0.38693911D-03  0.10798918D-01  0.32253732D-02 -0.85542309D-03
  0.77046773D-04  0.51160366D-02 -0.14043391D-02 -0.37116975D-02  0.52874353D-02
  0.26854833D-03 -0.31618512D-03  0.32369461D-02  0.58389889D-02  0.86082087D-02
  0.18005464D-02  0.32305659D-04 -0.15760993D-03  0.31330030D-02 -0.11318677D-03
  0.20957051D-02  0.37803531D-02  0.55732369D-02  0.45033220D-02 -0.21117264D-03
  0.32749830D-02  0.21929582D-04 -0.82682521D-05 -0.12424043D+00 -0.22849734D+00
 -0.37400120D+00 -0.50401405D+00 -0.49857725D+00 -0.55493071D-01 -0.22105991D+00
 -0.59090322D+00  0.84398583D-03 -0.44452634D+00 -0.45641548D+00 -0.34493311D+00
  0.48951024D-01  0.50260251D-01  0.37983865D-01 -0.19618453D-04 -0.20143162D-04
 -0.15223067D-04  0.31134717D+00 -0.14372715D+00  0.15433096D-01 -0.98609489D-05
  0.80425108D-01 -0.10875212D-01  0.58441780D-03  0.20475707D-04  0.45202052D-01
 -0.25052963D-01 -0.20149089D-01 -0.15693865D-01  0.63444341D-05 -0.29881481D-03
MO    5     MO 0.0        OCC NO =    2.0000000  ORB. ENERGY =   -0.896908
  0.35941817D-02  0.64833910D-02  0.95582272D-02  0.57807798D-02 -0.41363703D-03
 -0.62792418D-03 -0.56950632D-02 -0.16237107D-03 -0.20198276D-01 -0.37600966D-01
 -0.61853235D-01 -0.83058514D-01 -0.78202722D-01 -0.64264382D-02 -0.32703325D-01
 -0.86898857D-01  0.11714573D-03 -0.21498108D+00 -0.20116932D+00 -0.15581342D+00
 -0.96818914D-01 -0.90598649D-01 -0.70172156D-01  0.38252769D-03  0.35795167D-03
  0.27724740D-03  0.46769927D-01 -0.65454144D-01 -0.33718843D-01  0.76134169D-04
  0.53022769D-02 -0.14165721D-02  0.85130599D-04  0.10841231D-04 -0.28348025D-02
  0.69251200D-02 -0.40903175D-02  0.23305975D-01  0.16053029D-04 -0.95904590D-04
 -0.10753597D+00 -0.19765135D+00 -0.32304003D+00 -0.43362745D+00 -0.42072713D+00
 -0.41927835D-01 -0.17730947D+00 -0.48400128D+00  0.54772140D-03  0.34680211D-01
  0.34110772D-01  0.26147263D-01  0.55848278D-01  0.54931266D-01  0.42106999D-01
  0.73778710D-02  0.72567287D-02  0.55625709D-02  0.25369766D+00  0.11894362D-01
  0.19674135D-01  0.25235906D-02  0.70094893D-01  0.12654316D-02  0.31558665D-02
  0.24967934D-03  0.88686217D-02  0.79194330D-02 -0.16788055D-01  0.52446757D-02
  0.71509657D-03 -0.12913346D-02  0.18078296D-01  0.32610666D-01  0.48076717D-01
  0.22209040D-01  0.23344306D-03 -0.67685743D-02  0.16830403D-01 -0.88792921D-03
  0.20079449D-01  0.36220462D-01  0.53398508D-01  0.22789188D-01  0.54179973D-03
  0.17575842D-01 -0.33170976D-02  0.11936902D-03  0.40892793D-01  0.75208162D-01
  0.12309965D+00  0.16589239D+00  0.16410291D+00  0.18265122D-01  0.73198034D-01
  0.19566168D+00 -0.27946317D-03  0.81491527D-01  0.83671071D-01  0.63233881D-01
 -0.57062313D-01 -0.58588481D-01 -0.44277873D-01  0.29055629D-03  0.29832741D-03
  0.22545905D-03 -0.10505010D+00  0.25323899D-01 -0.19561685D-01  0.83915976D-04
 -0.28869274D-01  0.91369874D-03 -0.20385466D-02  0.85702920D-05 -0.79374776D-02
  0.38179610D-02  0.41195166D-02  0.18171586D-01 -0.59202600D-04  0.93268048D-04
MO    6     MO 0.0        OCC NO =    2.0000000  ORB. ENERGY =   -0.604593
  0.22951724D-01  0.41401635D-01  0.61036923D-01  0.36675614D-01  0.22968656D-02
  0.48728195D-02 -0.15553300D-01 -0.63732150D-03 -0.59335402D-01 -0.11045836D+00
 -0.18170296D+00 -0.24399658D+00 -0.22973198D+00 -0.18878606D-01 -0.96317139D-01
 -0.25593267D+00  0.34501512D-03 -0.22620215D+00 -0.21166948D+00 -0.16394619D+00
  0.45063033D-01  0.42167896D-01  0.32660665D-01  0.20068159D-02  0.18778852D-02
  0.14544947D-02  0.14447367D+00 -0.68459383D-01  0.13450829D-01  0.50483310D-03
  0.33523128D-01 -0.80498903D-02  0.33553212D-02  0.12342878D-03  0.10973548D-02
  0.36971806D-02 -0.47945354D-02  0.65202156D-02  0.32534926D-04  0.59045812D-03
  0.27062125D-01  0.49740245D-01  0.81295119D-01  0.10912516D+00  0.10587871D+00
  0.10551412D-01  0.45082193D-01  0.12306077D+00 -0.13926206D-03  0.33878323D+00
  0.33322051D+00  0.25542676D+00  0.49519733D+00  0.48706635D+00  0.37335571D+00
 -0.10293561D-01 -0.10124544D-01 -0.77608654D-02 -0.65855523D-01  0.11129419D+00
  0.16499304D+00 -0.34380846D-02 -0.26050684D-01  0.14132544D-01  0.21119774D-01
 -0.46968978D-03 -0.66212912D-02  0.48204031D-02  0.18008882D-02  0.36287618D-01
 -0.32025388D-04  0.24191569D-02 -0.21956452D-01 -0.39606307D-01 -0.58390136D-01
 -0.30777369D-01 -0.40620747D-02  0.10815494D-01 -0.89420709D-02  0.74694712D-03
 -0.18167604D-01 -0.32771765D-01 -0.48314220D-01 -0.26004361D-01 -0.31953713D-02
 -0.78756922D-02  0.10276550D-01 -0.15135874D-03  0.42935887D-01  0.78965727D-01
  0.12924998D+00  0.17418074D+00  0.17230185D+00  0.19177688D-01  0.77664185D-01
  0.20759990D+00 -0.29651451D-03 -0.21069536D+00 -0.21633055D+00 -0.16349044D+00
  0.70611940D-01  0.72500502D-01  0.54791794D-01  0.10840094D-02  0.11130019D-02
  0.84114411D-03 -0.11534964D+00 -0.62516757D-01  0.22457317D-01  0.41504371D-03
 -0.42814222D-01 -0.10310149D-01  0.32438981D-02 -0.91787971D-05  0.53826168D-02
 -0.19726914D-02 -0.34099254D-02 -0.62207723D-02 -0.21517556D-03  0.19081060D-03
MO    7     MO 0.0        OCC NO =    2.0000000  ORB. ENERGY =   -0.552613
 -0.14270829D-01 -0.25742540D-01 -0.37951289D-01 -0.23385922D-01 -0.32170365D-02
 -0.38422105D-02  0.81629837D-02  0.51373570D-03 -0.16900830D-02 -0.31462464D-02
 -0.51755458D-02 -0.69498893D-02 -0.65435828D-02 -0.53772976D-03 -0.26273813D-02
 -0.69814440D-02  0.94114742D-05  0.62803599D-02  0.58768695D-02  0.45518626D-02
 -0.27496345D+00 -0.25729804D+00 -0.19928728D+00 -0.64261861D-04 -0.60133269D-04
 -0.46575541D-04  0.58267212D-02  0.15798502D-02 -0.90168995D-01  0.90297560D-04
 -0.30918830D-02  0.11345533D-02 -0.75876070D-02  0.44929146D-04 -0.12465833D-01
  0.13137475D-01 -0.67164255D-03  0.25145903D-03 -0.23217744D-04 -0.69409715D-03
  0.12170094D-02  0.22368659D-02  0.36559184D-02  0.49074617D-02  0.47614658D-02
  0.47450696D-03  0.18786432D-02  0.51281283D-02 -0.58032608D-05  0.72468083D+00
  0.71278179D+00  0.54637557D+00 -0.28002300D+00 -0.27542511D+00 -0.21112429D+00
  0.15670643D-01  0.15413336D-01  0.11814935D-01 -0.17655496D-02  0.23785715D+00
 -0.90460302D-01  0.51218978D-02 -0.38958802D-03  0.32587875D-01 -0.13593996D-01
  0.70754036D-03 -0.87137853D-02  0.87071101D-02  0.66752590D-05  0.10590295D-01
  0.18757908D-02 -0.17633332D-02  0.24523193D-01  0.44236342D-01  0.65216028D-01
  0.35848106D-01  0.46425180D-02  0.37588438D-02  0.16291319D-01 -0.80344776D-03
 -0.38107763D-01 -0.68740967D-01 -0.10134230D+00 -0.56427496D-01 -0.80767332D-02
 -0.18730949D-01  0.91253951D-03  0.12967539D-03  0.13638706D-01  0.25083686D-01
  0.41056621D-01  0.55329004D-01  0.54732170D-01  0.60918467D-02  0.24389715D-01
  0.65194819D-01 -0.93117623D-04 -0.14364650D+00 -0.14748842D+00 -0.11146344D+00
 -0.31178930D+00 -0.32012830D+00 -0.24193493D+00  0.72087880D-03  0.74015917D-03
  0.55937059D-03 -0.34900514D-01 -0.48398398D-01 -0.10112157D+00  0.20406555D-03
 -0.15980485D-01 -0.66247289D-02 -0.14411913D-01  0.48167866D-04  0.11798401D-01
 -0.70025490D-02 -0.47958517D-02  0.36399994D-01 -0.62132216D-04 -0.39559245D-04
MO    8     MO 0.0        OCC NO =    2.0000000  ORB. ENERGY =   -0.468644
 -0.20274953D-01 -0.36573122D-01 -0.53918422D-01 -0.32836590D-01 -0.31510953D-02
 -0.97163432D-02  0.74678483D-02  0.45710777D-04  0.20853086D-01  0.38819956D-01
  0.63858462D-01  0.85751197D-01  0.80737985D-01  0.66347777D-02  0.33899726D-01
  0.90077921D-01 -0.12143133D-03 -0.23389865D+00 -0.21887151D+00 -0.16952444D+00
 -0.32491393D+00 -0.30403939D+00 -0.23549026D+00 -0.22708194D-01 -0.21249275D-01
 -0.16458385D-01 -0.53136623D-01 -0.71092455D-01 -0.10289584D+00 -0.75263339D-02
 -0.11694414D-01  0.18881827D-02 -0.15233818D-01 -0.10103198D-02  0.20542971D-02
 -0.10506241D-02 -0.10036730D-02  0.33617024D-02 -0.36631475D-03  0.66831989D-03
 -0.41507373D-02 -0.76290642D-02 -0.12468891D-01 -0.16737410D-01 -0.16239475D-01
 -0.16183554D-02 -0.71373039D-02 -0.19482683D-01  0.22047633D-04  0.47137234D-01
  0.46363255D-01  0.35539278D-01  0.56809716D+00  0.55876918D+00  0.42831878D+00
 -0.38256098D-01 -0.37627945D-01 -0.28843315D-01  0.12420905D-01  0.16428438D-01
  0.18785751D+00 -0.12805966D-01  0.22573867D-02 -0.73713432D-03  0.33090705D-01
 -0.22692565D-02  0.94199415D-02 -0.91711689D-02 -0.24877263D-03  0.26669455D-01
 -0.17384666D-02  0.17839056D-02 -0.26396232D-01 -0.47615036D-01 -0.70197114D-01
 -0.38131318D-01 -0.68219127D-02  0.92130535D-02 -0.56219948D-02  0.97147850D-04
  0.50778994D-02  0.91598061D-02  0.13503969D-01  0.57539142D-02  0.11358074D-02
  0.38880256D-02  0.77897729D-02 -0.62520489D-03 -0.43908687D-01 -0.80754855D-01
 -0.13217840D+00 -0.17812716D+00 -0.17620570D+00 -0.19612197D-01 -0.79288875D-01
 -0.21194277D+00  0.30271742D-03  0.66802634D+00  0.68589313D+00  0.51835938D+00
 -0.58770315D+00 -0.60342165D+00 -0.45603208D+00 -0.36792627D-01 -0.37776669D-01
 -0.28549478D-01  0.11807162D+00  0.20577645D+00 -0.19380845D+00 -0.12288993D-01
  0.54320061D-01  0.33446615D-01 -0.28421500D-01 -0.18086163D-02 -0.25887137D-01
  0.71434296D-02  0.18743707D-01  0.69101561D-01  0.42479915D-02 -0.56452633D-03
MO    9     MO 0.0        OCC NO =    2.0000000  ORB. ENERGY =   -0.429280
  0.22533111D-01  0.40646518D-01  0.59923681D-01  0.43520053D-01  0.10013411D-01
  0.37881791D-03 -0.13338832D-01  0.86166201D-03  0.11919005D-01  0.22188334D-01
  0.36499602D-01  0.49012839D-01  0.46147436D-01  0.37922420D-02  0.18906086D-01
  0.50237012D-01 -0.67723001D-04 -0.32550627D+00 -0.30459367D+00 -0.23591957D+00
  0.25676344D+00  0.24026731D+00  0.18609632D+00  0.79436162D-01  0.74332676D-01
  0.57573531D-01 -0.34090011D-01 -0.99276823D-01  0.82108720D-01  0.26602484D-01
  0.61694169D-02  0.13565593D-02  0.75058730D-02  0.39557185D-02 -0.12686343D-01
  0.10448980D-01  0.22373633D-02  0.13987342D-01  0.40036845D-02 -0.31382437D-02
 -0.96360861D-03 -0.17711147D-02 -0.28946979D-02 -0.38856499D-02 -0.37700527D-02
 -0.37570704D-03 -0.15109925D-02 -0.41245531D-02  0.46675621D-05  0.23030391D+00
  0.22652239D+00  0.17363841D+00 -0.20408434D+00 -0.20073334D+00 -0.15387008D+00
  0.91311263D-01  0.89811960D-01  0.68844437D-01  0.12760748D-02  0.73640519D-01
 -0.69457830D-01  0.30666588D-01  0.44109056D-02  0.48046105D-02 -0.33212045D-02
  0.54542458D-02 -0.16340763D-01  0.16322439D-01  0.18324294D-04 -0.60794320D-02
  0.43801316D-02  0.27465069D-02  0.16794308D-01  0.30294536D-01  0.44662131D-01
  0.34889351D-01  0.72521384D-02 -0.29878984D-02  0.89093293D-02  0.88492965D-03
 -0.15881154D-01 -0.28647336D-01 -0.42233725D-01 -0.35340082D-01 -0.56823425D-02
 -0.92723002D-02 -0.54861903D-03  0.17706818D-02 -0.42881970D-01 -0.78866565D-01
 -0.12908767D+00 -0.17396201D+00 -0.17208548D+00 -0.19153605D-01 -0.77508963D-01
 -0.20718499D+00  0.29592189D-03  0.11809513D+01  0.12125366D+01  0.91636681D+00
  0.21267629D+00  0.21836445D+00  0.16502755D+00  0.17100692D+00  0.17558061D+00
  0.13269393D+00  0.11556509D+00  0.36382339D+00  0.74145047D-01  0.56645356D-01
  0.57949651D-01  0.60355881D-01  0.11250527D-01  0.90880841D-02 -0.55039923D-01
  0.28993774D-01  0.26046150D-01 -0.19428506D-01 -0.17270034D-01  0.18117856D-02
MO   10     MO 0.0        OCC NO =    2.0000000  ORB. ENERGY =   -0.415909
 -0.41630263D-02 -0.75095055D-02 -0.11070991D-01 -0.80009843D-02 -0.17387797D-02
 -0.28411606D-03  0.18746048D-02  0.91626282D-02 -0.89480447D-03 -0.16657616D-02
 -0.27401621D-02 -0.36795778D-02 -0.34644612D-02 -0.28469784D-03 -0.13543335D-02
 -0.35987177D-02  0.48513229D-05  0.45986323D-01  0.43031868D-01  0.33329845D-01
 -0.61863386D-01 -0.57888887D-01 -0.44837181D-01  0.44333923D+00  0.41485628D+00
  0.32132223D+00  0.27671202D-02  0.14272229D-01 -0.19764001D-01  0.14825773D+00
 -0.18094860D-02 -0.12904466D-03 -0.24916532D-02  0.23581832D-01  0.23789134D-02
 -0.19425305D-02 -0.43638292D-03 -0.34978812D-02  0.28913255D-01 -0.19102456D-01
  0.10294109D-02  0.18920594D-02  0.30923691D-02  0.41509906D-02  0.40274995D-02
  0.40136307D-03  0.17036343D-02  0.46504069D-02 -0.52626460D-05 -0.48307105D-01
 -0.47513917D-01 -0.36421306D-01  0.70887836D-01  0.69723880D-01  0.53446125D-01
  0.43286295D+00  0.42575548D+00  0.32635849D+00 -0.23396196D-02 -0.15451830D-01
  0.23760620D-01  0.14565910D+00 -0.22065660D-02 -0.15611581D-02  0.29627619D-02
  0.27676730D-01  0.31925021D-02 -0.37064352D-02  0.51393307D-03  0.21674390D-02
  0.21142143D-01  0.20868252D-01 -0.38987369D-02 -0.70327651D-02 -0.10368150D-01
 -0.75681874D-02 -0.15793201D-02  0.86291738D-03 -0.10362075D-02  0.90451892D-02
  0.34488895D-02  0.62213046D-02  0.91718428D-02  0.72034187D-02  0.12174315D-02
  0.19133802D-02  0.58488177D-03  0.83488115D-02  0.52970109D-02  0.97420211D-02
  0.15945602D-01  0.21488721D-01  0.21256922D-01  0.23659560D-02  0.95757695D-02
  0.25596468D-01 -0.36559382D-04 -0.18009829D+00 -0.18491513D+00 -0.13974844D+00
 -0.84502005D-01 -0.86762066D-01 -0.65569881D-01  0.10429052D+01  0.10707984D+01
  0.80924907D+00 -0.14255906D-01 -0.55442330D-01 -0.28607025D-01  0.34506073D+00
 -0.75731930D-02 -0.92611089D-02 -0.44475293D-02  0.56268283D-01  0.85808359D-02
 -0.49129586D-02 -0.36678772D-02  0.78779997D-02 -0.10089042D+00  0.11106788D-01
MO   11     MO 0.0        OCC NO =    2.0000000  ORB. ENERGY =   -0.282703
  0.14574806D-02  0.26290871D-02  0.38759674D-02  0.38018938D-02  0.14474113D-02
 -0.34616760D-03  0.53246118D-05  0.11350154D-02 -0.51940468D-03 -0.96692002D-03
 -0.15905743D-02 -0.21358744D-02 -0.20110063D-02 -0.16525777D-03 -0.86475396D-03
 -0.22978132D-02  0.30976127D-05 -0.34529097D-02 -0.32310728D-02 -0.25025907D-02
 -0.42014063D-03 -0.39314811D-03 -0.30450841D-03 -0.21821643D-01 -0.20419681D-01
 -0.15815833D-01  0.12785725D-02 -0.86066245D-03  0.88582381D-03 -0.61458080D-02
  0.32757758D-04 -0.80381339D-03 -0.93078695D-03 -0.21537743D-02 -0.30360088D-03
  0.27954602D-03  0.24054861D-04 -0.65256486D-02 -0.60537479D-01 -0.17239149D-01
  0.33485746D-02  0.61546875D-02  0.10059179D-01  0.13502774D-01  0.13101069D-01
  0.13055955D-02  0.56315460D-02  0.15372419D-01 -0.17396241D-04 -0.29580368D-01
 -0.29094667D-01 -0.22302219D-01  0.14541657D-01  0.14302887D-01  0.10963731D-01
  0.95179270D+00  0.93616456D+00  0.71760734D+00 -0.86312043D-02 -0.93461876D-02
  0.49083112D-02  0.30515421D+00 -0.63187645D-02 -0.18656931D-02  0.12248846D-02
  0.80248107D-01 -0.48374680D-03 -0.16178172D-04  0.49992497D-03  0.17632594D-03
  0.12609659D-02  0.52464935D-02  0.93321066D-03  0.16833789D-02  0.24817442D-02
  0.10999318D-02  0.80126980D-03 -0.58459013D-03  0.84817426D-03  0.18419151D-01
  0.11332140D-02  0.20441563D-02  0.30136252D-02  0.24932101D-02  0.64455240D-03
  0.43003070D-03  0.23757074D-03  0.21662550D-01  0.50205046D-04  0.92334832D-04
  0.15113234D-03  0.20367000D-03  0.20147301D-03  0.22424521D-04  0.12280299D-03
  0.32825798D-03 -0.46885019D-06 -0.17667816D-01 -0.18140353D-01 -0.13709457D-01
 -0.11590329D+00 -0.11900320D+00 -0.89935912D-01 -0.94984636D+00 -0.97525062D+00
 -0.73703946D+00 -0.45768044D-03 -0.55012396D-02 -0.37540842D-01 -0.30493499D+00
  0.73199285D-03 -0.13481192D-02 -0.73114659D-02 -0.64224022D-01  0.63922336D-03
 -0.58845756D-03 -0.50765795D-04  0.53670808D-02  0.46594095D-01 -0.78045196D-02
MO   12     MO 0.0        OCC NO =    2.0000000  ORB. ENERGY =   -0.270882
 -0.26981761D-01 -0.48671247D-01 -0.71754247D-01 -0.64640607D-01 -0.22650167D-01
  0.31287612D-03  0.27583057D-03  0.28256775D-03  0.43871881D-02  0.81671579D-02
  0.13434898D-01  0.18040813D-01  0.16986106D-01  0.13958614D-02  0.74202852D-02
  0.19717087D-01 -0.26580011D-04  0.36760311D-01  0.34398594D-01  0.26643040D-01
 -0.88446496D-01 -0.82764128D-01 -0.64104016D-01  0.42490056D-03  0.39760224D-03
  0.30795830D-03 -0.89589688D-02  0.11301330D-01 -0.36933815D-01 -0.85871728D-04
 -0.13393256D-01  0.88082234D-02  0.84343488D-02  0.30283055D-03  0.15945479D-01
 -0.14306761D-01 -0.16387178D-02  0.86356746D-01 -0.32043848D-02 -0.24143732D-02
 -0.23266600D-01 -0.42764062D-01 -0.69893292D-01 -0.93820108D-01 -0.91028980D-01
 -0.90715519D-02 -0.38828861D-01 -0.10599106D+00  0.11994508D-03  0.23200737D+00
  0.22819788D+00  0.17492274D+00  0.25825799D+00  0.25401748D+00  0.19471449D+00
  0.81294109D-01  0.79959285D-01  0.61291970D-01  0.56175590D-01  0.71434060D-01
  0.77777247D-01  0.26276655D-01  0.61540297D-01  0.18726997D-01  0.17889766D-01
  0.71557190D-02  0.21616431D-02 -0.55264713D-02  0.33648282D-02 -0.44641570D-02
  0.83775116D-03  0.47667533D-03 -0.63168268D-02 -0.11394654D-01 -0.16798724D-01
 -0.18074813D-01 -0.10967385D-01  0.23694922D-02 -0.32739272D-02  0.21662710D-02
 -0.61220340D-02 -0.11043276D-01 -0.16280700D-01 -0.16519673D-01 -0.42793489D-02
 -0.24559367D-02  0.56918226D-02  0.17787205D-02 -0.28039564D-02 -0.51569088D-02
 -0.84407551D-02 -0.11374988D-01 -0.11252286D-01 -0.12524115D-02 -0.53568105D-02
 -0.14318998D-01  0.20451796D-04  0.12281584D+00  0.12610063D+00  0.95299751D-01
  0.14677200D+01  0.15069751D+01  0.11388869D+01 -0.45264055D-01 -0.46474672D-01
 -0.35122938D-01  0.10886922D-01  0.40711179D-01  0.47021237D+00 -0.14439101D-01
 -0.29367209D-02  0.10529423D-01  0.96325235D-01 -0.32706804D-02 -0.40244560D-02
  0.37800443D-02  0.24441171D-03 -0.58128570D-01  0.21000944D-02 -0.50073701D-03
END DATA
 TOTAL ENERGY =   -169.935356362946 THE VIRIAL(-V/T)=   2.00430784
