 Formamide B3LYP/6-311G** trial 3
GAUSSIAN             12 MOL ORBITALS    120 PRIMITIVES        6 NUCLEI
  H    1    (CENTRE  1)  -0.98177448  2.61872436  0.11482012  CHARGE =  1.0
  C    2    (CENTRE  2)   0.06833068  0.75058033 -0.05630665  CHARGE =  6.0
  N    3    (CENTRE  3)  -1.78104423 -0.98917008 -0.00160972  CHARGE =  7.0
  H    4    (CENTRE  4)  -1.22426669 -3.01817355 -0.06483919  CHARGE =  1.0
  H    5    (CENTRE  5)  -3.70648930 -1.28571855  0.24964313  CHARGE =  1.0
  O    6    (CENTRE  6)   2.23316707  0.46360433  0.02477572  CHARGE =  8.0
CENTRE ASSIGNMENTS    1  1  1  1  1  1  1  1  2  2  2  2  2  2  2  2  2  2  2  2
CENTRE ASSIGNMENTS    2  2  2  2  2  2  2  2  2  2  2  2  2  2  2  2  2  2  2  2
CENTRE ASSIGNMENTS    3  3  3  3  3  3  3  3  3  3  3  3  3  3  3  3  3  3  3  3
CENTRE ASSIGNMENTS    3  3  3  3  3  3  3  3  3  3  3  3  4  4  4  4  4  4  4  4
CENTRE ASSIGNMENTS    5  5  5  5  5  5  5  5  6  6  6  6  6  6  6  6  6  6  6  6
CENTRE ASSIGNMENTS    6  6  6  6  6  6  6  6  6  6  6  6  6  6  6  6  6  6  6  6
TYPE ASSIGNMENTS      1  1  1  1  1  2  3  4  1  1  1  1  1  1  1  1  1  2  2  2
TYPE ASSIGNMENTS      3  3  3  4  4  4  1  2  3  4  1  2  3  4  5  6  7  8  9 10
TYPE ASSIGNMENTS      1  1  1  1  1  1  1  1  1  2  2  2  3  3  3  4  4  4  1  2
TYPE ASSIGNMENTS      3  4  1  2  3  4  5  6  7  8  9 10  1  1  1  1  1  2  3  4
TYPE ASSIGNMENTS      1  1  1  1  1  2  3  4  1  1  1  1  1  1  1  1  1  2  2  2
TYPE ASSIGNMENTS      3  3  3  4  4  4  1  2  3  4  1  2  3  4  5  6  7  8  9 10
EXPONENTS  0.3386500D+02 0.5094790D+01 0.1158790D+01 0.3258400D+00 0.1027410D+00
EXPONENTS  0.7500000D+00 0.7500000D+00 0.7500000D+00 0.4563240D+04 0.6820240D+03
EXPONENTS  0.1549730D+03 0.4445530D+02 0.1302900D+02 0.1827730D+01 0.2096420D+02
EXPONENTS  0.4803310D+01 0.1459330D+01 0.2096420D+02 0.4803310D+01 0.1459330D+01
EXPONENTS  0.2096420D+02 0.4803310D+01 0.1459330D+01 0.2096420D+02 0.4803310D+01
EXPONENTS  0.1459330D+01 0.4834560D+00 0.4834560D+00 0.4834560D+00 0.4834560D+00
EXPONENTS  0.1455850D+00 0.1455850D+00 0.1455850D+00 0.1455850D+00 0.6260000D+00
EXPONENTS  0.6260000D+00 0.6260000D+00 0.6260000D+00 0.6260000D+00 0.6260000D+00
EXPONENTS  0.6293480D+04 0.9490440D+03 0.2187760D+03 0.6369160D+02 0.1882820D+02
EXPONENTS  0.2720230D+01 0.3063310D+02 0.7026140D+01 0.2112050D+01 0.3063310D+02
EXPONENTS  0.7026140D+01 0.2112050D+01 0.3063310D+02 0.7026140D+01 0.2112050D+01
EXPONENTS  0.3063310D+02 0.7026140D+01 0.2112050D+01 0.6840090D+00 0.6840090D+00
EXPONENTS  0.6840090D+00 0.6840090D+00 0.2008780D+00 0.2008780D+00 0.2008780D+00
EXPONENTS  0.2008780D+00 0.9130000D+00 0.9130000D+00 0.9130000D+00 0.9130000D+00
EXPONENTS  0.9130000D+00 0.9130000D+00 0.3386500D+02 0.5094790D+01 0.1158790D+01
EXPONENTS  0.3258400D+00 0.1027410D+00 0.7500000D+00 0.7500000D+00 0.7500000D+00
EXPONENTS  0.3386500D+02 0.5094790D+01 0.1158790D+01 0.3258400D+00 0.1027410D+00
EXPONENTS  0.7500000D+00 0.7500000D+00 0.7500000D+00 0.8588500D+04 0.1297230D+04
EXPONENTS  0.2992960D+03 0.8737710D+02 0.2567890D+02 0.3740040D+01 0.4211750D+02
EXPONENTS  0.9628370D+01 0.2853320D+01 0.4211750D+02 0.9628370D+01 0.2853320D+01
EXPONENTS  0.4211750D+02 0.9628370D+01 0.2853320D+01 0.4211750D+02 0.9628370D+01
EXPONENTS  0.2853320D+01 0.9056610D+00 0.9056610D+00 0.9056610D+00 0.9056610D+00
EXPONENTS  0.2556110D+00 0.2556110D+00 0.2556110D+00 0.2556110D+00 0.1292000D+01
EXPONENTS  0.1292000D+01 0.1292000D+01 0.1292000D+01 0.1292000D+01 0.1292000D+01
MO    1     MO 0.0        OCC NO =    2.0000000  ORB. ENERGY =  -19.094811
 -0.62034444D-04 -0.11190129D-03 -0.16497199D-03  0.17521893D-03  0.81941833D-04
 -0.52858989D-03  0.37844403D-04 -0.32606283D-04 -0.41238430D-04 -0.76769166D-04
 -0.12628456D-03 -0.16957896D-03 -0.15966499D-03 -0.13120735D-04  0.16802705D-03
  0.44647932D-03 -0.60188532D-06  0.10123934D-02  0.94735082D-03  0.73375983D-03
 -0.40163372D-04 -0.37583021D-04 -0.29109502D-04 -0.80576704D-05 -0.75399942D-05
 -0.58400169D-05  0.66862944D-04 -0.11652568D-02  0.74220307D-04 -0.36622108D-05
  0.53864740D-03  0.57563121D-03 -0.23169205D-03  0.21907678D-05 -0.11429730D-02
  0.80815820D-03  0.33481480D-03  0.63268838D-03 -0.10066062D-03  0.22079606D-04
 -0.32365395D-05 -0.59487667D-05 -0.97226239D-05 -0.13051004D-04 -0.12662739D-04
 -0.12619135D-05  0.40867737D-04  0.11155657D-03 -0.12624331D-06  0.40078495D-03
  0.39420419D-03  0.30217318D-03  0.15040764D-03  0.14793799D-03  0.11340035D-03
 -0.11028253D-04 -0.10847172D-04 -0.83147887D-05 -0.71965465D-04 -0.42020190D-03
 -0.23192688D-03  0.17719197D-04  0.37970904D-04 -0.34373453D-03  0.20708679D-03
  0.12438766D-04 -0.23833667D-03  0.19220616D-03  0.46130504D-04 -0.42995667D-03
 -0.39532394D-04 -0.55998484D-04 -0.27316719D-04 -0.49275463D-04 -0.72645021D-04
  0.24983058D-03 -0.38775804D-04  0.29760970D-04  0.72957783D-04  0.79244779D-06
  0.31938579D-04  0.57612640D-04  0.84936218D-04 -0.35841822D-03  0.28175690D-04
 -0.16718104D-03 -0.17103434D-03  0.52081997D-04  0.66426974D+00  0.12216946D+01
  0.19996524D+01  0.26947852D+01  0.26657166D+01  0.29670186D+00  0.63032896D+00
  0.16848980D+01 -0.24065363D-02 -0.66018712D-02 -0.67784425D-02 -0.51227649D-02
  0.45210967D-03  0.46420164D-03  0.35081744D-03 -0.36984332D-03 -0.37973502D-03
 -0.28698233D-03  0.93078488D-02 -0.18028389D-02  0.24871652D-03 -0.93211679D-04
 -0.22889349D-02  0.45115691D-03 -0.99490424D-05  0.34195265D-04  0.13873940D-02
 -0.70270827D-03 -0.68468574D-03 -0.57717335D-03  0.16573099D-03 -0.32417445D-04
MO    2     MO 0.0        OCC NO =    2.0000000  ORB. ENERGY =  -14.343936
 -0.63909228D-04 -0.11528313D-03 -0.16995772D-03 -0.10360614D-03  0.51633393D-04
 -0.16873410D-03  0.29967555D-03  0.34835894D-04 -0.61866898D-05 -0.11517097D-04
 -0.18945517D-04 -0.25440649D-04 -0.23953330D-04 -0.19684046D-05  0.96251872D-04
  0.25575925D-03 -0.34478133D-06 -0.11025146D-02 -0.10316821D-02 -0.79907763D-03
 -0.95559653D-03 -0.89420290D-03 -0.69259471D-03 -0.20446165D-04 -0.19132573D-04
 -0.14818917D-04  0.66108161D-04  0.98968417D-03  0.74542511D-03  0.28228223D-04
  0.81811087D-03 -0.17007870D-03 -0.34884879D-03  0.30499884D-05 -0.37792269D-05
 -0.16915334D-03  0.17293257D-03 -0.20471198D-02  0.77504370D-04  0.46864474D-04
  0.55288181D+00  0.10161980D+01  0.16608671D+01  0.22294375D+01  0.21631122D+01
  0.21556635D+00  0.48368211D+00  0.13203060D+01 -0.14941280D-02 -0.71217032D-03
 -0.70047670D-03 -0.53694323D-03 -0.98675992D-03 -0.97055763D-03 -0.74397099D-03
  0.20392248D-03  0.20057414D-03  0.15374805D-03  0.81511799D-02  0.29171528D-03
  0.46181389D-03  0.81472908D-04 -0.14639092D-02 -0.60629343D-03 -0.39788394D-03
  0.37257150D-04  0.12216151D-02  0.15022912D-03 -0.13718442D-02  0.18805289D-02
 -0.52842590D-03 -0.95749424D-04  0.30766395D-04  0.55498188D-04  0.81818957D-04
 -0.24691876D-03  0.17701948D-04  0.50157069D-03 -0.83158214D-03 -0.46173678D-04
 -0.45209066D-05 -0.81550705D-05 -0.12022723D-04 -0.85021222D-03  0.61337702D-04
 -0.18095120D-02 -0.21413363D-04  0.26888007D-03  0.41771697D-05  0.76824601D-05
  0.12574542D-04  0.16945790D-04  0.16762995D-04  0.18657692D-05  0.56398933D-04
  0.15075692D-03 -0.21532579D-06 -0.55088185D-03 -0.56561554D-03 -0.42746035D-03
 -0.12365451D-03 -0.12696173D-03 -0.95950519D-04 -0.16845556D-05 -0.17296101D-05
 -0.13071419D-05 -0.14103369D-03  0.73957283D-03  0.91611457D-04  0.95408997D-05
 -0.37930562D-03  0.15774922D-03  0.14730492D-03  0.37816118D-05 -0.59724960D-03
  0.55312188D-03  0.44127719D-04 -0.77286589D-03 -0.94596144D-05 -0.95149238D-04
MO    3     MO 0.0        OCC NO =    2.0000000  ORB. ENERGY =  -10.274631
  0.41016100D-04  0.73987192D-04  0.10907662D-03 -0.62363073D-03  0.27900750D-03
 -0.68346520D-03  0.16406194D-02  0.13896818D-03  0.43806430D+00  0.81549736D+00
  0.13414855D+01  0.18013899D+01  0.16960765D+01  0.13937789D+00  0.37091428D+00
  0.98558868D+00 -0.13286424D-02 -0.12242596D-03 -0.11456053D-03 -0.88731559D-04
 -0.15794669D-02 -0.14779919D-02 -0.11447618D-02 -0.37924603D-03 -0.35488084D-03
 -0.27486893D-03  0.74734094D-02  0.10564258D-02 -0.48646845D-04  0.24924883D-03
  0.41660339D-03  0.31768949D-03 -0.34460397D-03 -0.13931539D-04  0.20519449D-02
 -0.25362186D-03 -0.17983230D-02 -0.42124295D-03  0.72981089D-04  0.92386358D-04
 -0.59915966D-04 -0.11012568D-03 -0.17998866D-03 -0.24160481D-03 -0.23441711D-03
 -0.23360989D-04 -0.18228869D-04 -0.49759306D-04  0.56310258D-07  0.13840811D-02
  0.13613549D-02  0.10435326D-02  0.18064604D-02  0.17767988D-02  0.13619869D-02
 -0.53886854D-04 -0.53002048D-04 -0.40628176D-04  0.21326084D-03 -0.97674712D-03
 -0.12581938D-02  0.52636604D-04 -0.50913430D-03 -0.69407806D-03 -0.13169484D-03
  0.51643195D-04  0.20952020D-03 -0.94968376D-03  0.74016356D-03 -0.20694034D-02
 -0.10198156D-03  0.60947068D-04 -0.23456032D-04 -0.42311334D-04 -0.62378060D-04
  0.15011219D-03 -0.15561806D-04  0.27679588D-03  0.11692744D-03 -0.19054074D-04
  0.21427188D-04  0.38651590D-04  0.56982631D-04 -0.65830811D-03 -0.19151378D-04
 -0.54995414D-03 -0.78439685D-04  0.96320826D-04 -0.17967458D-03 -0.33044931D-03
 -0.54087473D-03 -0.72889730D-03 -0.72103468D-03 -0.80253217D-04 -0.99999470D-04
 -0.26730314D-03  0.38178851D-06 -0.35832636D-02 -0.36791003D-02 -0.27804567D-02
  0.58083113D-03  0.59636584D-03  0.45069970D-03 -0.11055405D-03 -0.11351089D-03
 -0.85785132D-04  0.62685755D-04  0.30511672D-02 -0.50454847D-03  0.10529449D-03
 -0.20599012D-02  0.88657678D-03 -0.39521087D-04  0.55371776D-04 -0.28003219D-02
  0.11980680D-02  0.16022539D-02  0.12737902D-02 -0.42464248D-03  0.27080153D-04
MO    4     MO 0.0        OCC NO =    2.0000000  ORB. ENERGY =   -1.073593
  0.40446145D-02  0.72959075D-02  0.10756091D-01  0.31291330D-02 -0.59114884D-03
  0.41769356D-02 -0.10472322D-02  0.16986282D-03 -0.57384132D-01 -0.10682589D+00
 -0.17572758D+00 -0.23597265D+00 -0.22217714D+00 -0.18257775D-01 -0.88847028D-01
 -0.23608319D+00  0.31825663D-03  0.23050993D+00  0.21570050D+00  0.16706838D+00
 -0.59332641D-01 -0.55520734D-01 -0.43002954D-01  0.10477481D-01  0.98043405D-02
  0.75938407D-02  0.12048652D+00  0.56419343D-01 -0.17805279D-01  0.25054481D-02
  0.82737859D-02 -0.14859937D-02  0.95779964D-03  0.43960540D-07  0.20243671D-01
 -0.82121599D-02 -0.12031511D-01 -0.54114095D-02  0.13774628D-02 -0.18990526D-03
 -0.22805534D-01 -0.41916621D-01 -0.68508241D-01 -0.91960907D-01 -0.89225090D-01
 -0.88917841D-02 -0.37355344D-01 -0.10196880D+00  0.11539328D-03  0.61631368D-01
  0.60619400D-01  0.46467179D-01  0.30921604D-01  0.30413881D-01  0.23313448D-01
  0.73700352D-03  0.72490215D-03  0.55566631D-03  0.53192854D-01  0.20323595D-01
  0.92887223D-02  0.37781760D-03  0.11319270D-01  0.28014521D-02 -0.27633768D-03
  0.13692107D-04  0.65372752D-02 -0.28857739D-02 -0.36515013D-02  0.64761610D-02
 -0.59692072D-03  0.40524657D-03  0.28401956D-02  0.51233076D-02  0.75531059D-02
  0.23371284D-02  0.70506229D-04 -0.16219426D-03  0.35144470D-02  0.12212425D-03
  0.20034986D-02  0.36140257D-02  0.53280265D-02  0.34390832D-02 -0.15718081D-03
  0.18131336D-02  0.75524193D-03 -0.25968928D-03 -0.12314060D+00 -0.22647458D+00
 -0.37069038D+00 -0.49955230D+00 -0.49416362D+00 -0.55001821D-01 -0.21905362D+00
 -0.58554030D+00  0.83632598D-03 -0.45868714D+00 -0.47095503D+00 -0.35592127D+00
  0.47368607D-01  0.48635511D-01  0.36755979D-01 -0.17224434D-01 -0.17685113D-01
 -0.13365412D-01  0.30718447D+00 -0.14765408D+00  0.14877811D-01 -0.54249151D-02
  0.78240942D-01 -0.10746323D-01  0.54491268D-03 -0.44118598D-03  0.48059883D-01
 -0.26666113D-01 -0.21393770D-01 -0.15590425D-01  0.55040067D-02 -0.45960920D-03
MO    5     MO 0.0        OCC NO =    2.0000000  ORB. ENERGY =   -0.907130
  0.48434186D-02  0.87368362D-02  0.12880399D-01  0.72056667D-02 -0.48563427D-03
 -0.26912568D-03 -0.67301363D-02 -0.42249299D-03 -0.21792871D-01 -0.40569451D-01
 -0.66736366D-01 -0.89615739D-01 -0.84376597D-01 -0.69337867D-02 -0.35056841D-01
 -0.93152591D-01  0.12557620D-03 -0.24232760D+00 -0.22675892D+00 -0.17563355D+00
 -0.10243460D+00 -0.95853547D-01 -0.74242277D-01  0.15780248D-02  0.14766424D-02
  0.11437166D-02  0.49825099D-01 -0.69349601D-01 -0.33571858D-01  0.42676820D-03
  0.41380270D-02 -0.98701260D-03  0.51746608D-03 -0.41807891D-04 -0.20048572D-02
  0.60209118D-02 -0.40160547D-02  0.22660963D-01 -0.14632393D-02 -0.50308369D-03
 -0.10703864D+00 -0.19673726D+00 -0.32154603D+00 -0.43162201D+00 -0.41878135D+00
 -0.41733927D-01 -0.17655913D+00 -0.48195308D+00  0.54540355D-03  0.44320689D-01
  0.43592957D-01  0.33415734D-01  0.46442063D-01  0.45679498D-01  0.35015151D-01
  0.85712689D-02  0.84305313D-02  0.64623373D-02  0.25196971D+00  0.13546126D-01
  0.15538237D-01  0.29517463D-02  0.69836782D-01  0.22059384D-02  0.30779530D-02
  0.23578390D-03  0.91588448D-02  0.79258804D-02 -0.17084725D-01  0.22871116D-01
 -0.52203139D-02 -0.71317979D-03  0.16145420D-01  0.29124034D-01  0.42936503D-01
  0.20540752D-01  0.27230971D-03 -0.55201209D-02  0.16863569D-01  0.71865495D-03
  0.19315504D-01  0.34842413D-01  0.51366901D-01  0.22810180D-01  0.57729250D-03
  0.16433692D-01  0.15533630D-02 -0.19626189D-02  0.43133232D-01  0.79328674D-01
  0.12984405D+00  0.17498132D+00  0.17309380D+00  0.19265833D-01  0.77239037D-01
  0.20646346D+00 -0.29489133D-03  0.95706664D-01  0.98266401D-01  0.74264209D-01
 -0.60614216D-01 -0.62235382D-01 -0.47033995D-01  0.72065818D-02  0.73993265D-02
  0.55919940D-02 -0.11051290D+00  0.30980440D-01 -0.20836529D-01  0.25467863D-02
 -0.30290814D-01  0.12900896D-02 -0.22334782D-02  0.20040861D-03 -0.10708273D-01
  0.52199847D-02  0.54882881D-02  0.20040859D-01 -0.27502036D-02  0.10012794D-02
MO    6     MO 0.0        OCC NO =    2.0000000  ORB. ENERGY =   -0.642533
  0.19378451D-01  0.34955961D-01  0.51534301D-01  0.30353394D-01  0.13210044D-02
  0.42268785D-02 -0.14352915D-01 -0.12238541D-02 -0.52604974D-01 -0.97929042D-01
 -0.16109235D+00 -0.21631999D+00 -0.20367343D+00 -0.16737202D-01 -0.85153841D-01
 -0.22626970D+00  0.30502736D-03 -0.25238044D+00 -0.23616591D+00 -0.18291963D+00
 -0.11542636D-01 -0.10801064D-01 -0.83658414D-02  0.51465066D-02  0.48158622D-02
  0.37300714D-02  0.12649178D+00 -0.73616705D-01 -0.51567726D-02  0.11764632D-02
  0.25573831D-01 -0.56038887D-02  0.12356473D-02  0.50685103D-04  0.16750511D-02
  0.37107493D-02 -0.53858005D-02  0.97130953D-02 -0.56126743D-03  0.87694983D-03
  0.23113352D-01  0.42482391D-01  0.69432932D-01  0.93202151D-01  0.90429407D-01
  0.90118011D-02  0.38386542D-01  0.10478366D+00 -0.11857872D-03  0.46668986D+00
  0.45902696D+00  0.35186241D+00  0.51647039D+00  0.50799011D+00  0.38939461D+00
 -0.36410081D-01 -0.35812239D-01 -0.27451504D-01 -0.55517438D-01  0.14877524D+00
  0.16929206D+00 -0.11726781D-01 -0.21132627D-01  0.16892108D-01  0.20420702D-01
 -0.12775977D-02 -0.66221762D-02  0.44241373D-02  0.21980390D-02  0.22533892D-01
  0.44489756D-02  0.40614562D-03 -0.19614869D-01 -0.35382426D-01 -0.52163022D-01
 -0.27966309D-01 -0.31525810D-02  0.12235178D-01 -0.10114476D-01 -0.12894273D-02
 -0.28767508D-01 -0.51892481D-01 -0.76503195D-01 -0.41709435D-01 -0.39080123D-02
 -0.19297210D-01  0.54185160D-02  0.27586451D-02  0.36675045D-01  0.67451071D-01
  0.11040296D+00  0.14878199D+00  0.14717707D+00  0.16381228D-01  0.66291325D-01
  0.17719973D+00 -0.25309400D-03 -0.11593552D+00 -0.11903629D+00 -0.89960919D-01
  0.40127192D-02  0.41200419D-02  0.31136955D-02  0.44710039D-02  0.45905838D-02
  0.34693046D-02 -0.97694462D-01 -0.32877057D-01  0.68987351D-04  0.19164697D-02
 -0.35945246D-01 -0.57746391D-02  0.46550380D-03  0.12155940D-03  0.84190050D-03
 -0.27710761D-03 -0.56479289D-03  0.44672103D-02 -0.19839035D-02  0.49990361D-03
MO    7     MO 0.0        OCC NO =    2.0000000  ORB. ENERGY =   -0.540863
  0.27802693D-01  0.50152092D-01  0.73937403D-01  0.44484531D-01  0.51647647D-02
  0.85230105D-02 -0.13944569D-01 -0.13903516D-02 -0.13853884D-01 -0.25790291D-01
 -0.42424786D-01 -0.56969367D-01 -0.53638807D-01 -0.44078578D-02 -0.22740731D-01
 -0.60426379D-01  0.81458981D-04 -0.26334026D-01 -0.24642160D-01 -0.19086306D-01
  0.40793485D+00  0.38172652D+00  0.29566194D+00  0.25724151D-01  0.24071467D-01
  0.18644282D-01  0.32031765D-01 -0.74122637D-02  0.12985449D+00  0.84403490D-02
  0.13871679D-01 -0.29344794D-02  0.12070284D-01  0.87515112D-03  0.11040035D-01
 -0.11572998D-01  0.53296326D-03 -0.22559155D-02 -0.75784217D-03  0.80647524D-03
  0.56060946D-02  0.10304014D-01  0.16840811D-01  0.22605984D-01  0.21933461D-01
  0.21857933D-02  0.96640430D-02  0.26379918D-01 -0.29852908D-04 -0.60723941D+00
 -0.59726872D+00 -0.45783021D+00  0.14599894D+00  0.14360168D+00  0.11007639D+00
  0.66811561D-01  0.65714536D-01  0.50372803D-01 -0.15639589D-01 -0.19813151D+00
  0.49281415D-01  0.22117847D-01 -0.62284453D-02 -0.27187100D-01  0.87828063D-02
  0.31280869D-02  0.57677584D-03 -0.18785075D-02  0.13017317D-02 -0.21857970D-03
 -0.25202884D-02  0.11015306D-02 -0.15478926D-01 -0.27921774D-01 -0.41164055D-01
 -0.23400314D-01 -0.39204387D-02 -0.63735943D-02 -0.12050766D-01  0.47540597D-03
  0.27202854D-01  0.49070067D-01  0.72342213D-01  0.41829987D-01  0.65008289D-02
  0.13886251D-01  0.46287724D-02 -0.19117975D-02  0.17497409D-02  0.32180437D-02
  0.52672483D-02  0.70982851D-02  0.70217158D-02  0.78153701D-03  0.34346659D-02
  0.91810184D-02 -0.13113229D-04  0.43187664D-01  0.44342746D-01  0.33511749D-01
  0.48016103D+00  0.49300325D+00  0.37258408D+00  0.31109778D-01  0.31941829D-01
  0.24139834D-01 -0.66386153D-02  0.18477579D-01  0.15726853D+00  0.10953338D-01
 -0.11303991D-02  0.16781112D-02  0.21776977D-01  0.13742692D-02 -0.98096575D-02
  0.80000938D-02  0.18095637D-02 -0.59478811D-01 -0.57343887D-02 -0.17074155D-02
MO    8     MO 0.0        OCC NO =    2.0000000  ORB. ENERGY =   -0.461316
 -0.87506498D-02 -0.15784924D-01 -0.23271138D-01 -0.10526490D-01  0.14537949D-02
 -0.81004271D-02 -0.16099225D-04  0.49345544D-03  0.28092317D-01  0.52296456D-01
  0.86027179D-01  0.11552006D+00  0.10876649D+00  0.89380669D-02  0.45430544D-01
  0.12071746D+00 -0.16273557D-03 -0.30789705D+00 -0.28811578D+00 -0.22315681D+00
 -0.13662572D+00 -0.12784801D+00 -0.99023227D-01  0.12742416D-01  0.11923762D-01
  0.92354147D-02 -0.71886788D-01 -0.89541720D-01 -0.40730571D-01  0.48482178D-02
 -0.11201833D-01  0.41499431D-02 -0.99110010D-02  0.66992475D-03  0.33350956D-02
 -0.34308937D-02  0.95798092D-04  0.65382423D-02  0.34461309D-03 -0.21456181D-02
 -0.10177611D-01 -0.18706472D-01 -0.30573730D-01 -0.41040142D-01 -0.39819207D-01
 -0.39682088D-02 -0.17272253D-01 -0.47148033D-01  0.53355204D-04 -0.97522483D-01
 -0.95921194D-01 -0.73527407D-01  0.46866167D+00  0.46096639D+00  0.35334906D+00
  0.31019864D-01  0.30510527D-01  0.23387532D-01  0.26629125D-01 -0.32950815D-01
  0.15422388D+00  0.10436153D-01  0.11657965D-01 -0.10771405D-01  0.30085866D-01
  0.20231054D-02  0.70878027D-02 -0.68204938D-02 -0.26730893D-03  0.19585010D-01
 -0.13604252D-02 -0.16512463D-03 -0.22377635D-01 -0.40366062D-01 -0.59510215D-01
 -0.33248407D-01 -0.64082275D-02  0.52444450D-02 -0.69368821D-02 -0.16691969D-03
  0.62417353D-02  0.11259200D-01  0.16599028D-01  0.57530416D-02  0.21631229D-02
 -0.54226556D-03  0.80001636D-02  0.58332661D-03 -0.61888598D-01 -0.11382269D+00
 -0.18630336D+00 -0.25106740D+00 -0.24835914D+00 -0.27643081D-01 -0.11176338D+00
 -0.29874861D+00  0.42670202D-03  0.10665028D+01  0.10950271D+01  0.82755981D+00
 -0.37017617D+00 -0.38007677D+00 -0.28724061D+00  0.77039540D-01  0.79100012D-01
  0.59779332D-01  0.16641629D+00  0.33032934D+00 -0.12196031D+00  0.24504694D-01
  0.76132335D-01  0.53345085D-01 -0.17190172D-01  0.41867602D-02 -0.48043038D-01
  0.19655831D-01  0.28387206D-01  0.47420230D-01 -0.10384826D-01  0.24616547D-02
MO    9     MO 0.0        OCC NO =    2.0000000  ORB. ENERGY =   -0.426332
 -0.24140826D-02 -0.43546605D-02 -0.64199175D-02 -0.55241161D-02 -0.12292922D-02
 -0.16194301D-03  0.84375960D-03  0.10341604D-01  0.14226503D-03  0.26483956D-03
  0.43565859D-03  0.58501637D-03  0.55081497D-03  0.45264133D-04  0.41284185D-03
  0.10969981D-02 -0.14788301D-05  0.38659097D-01  0.36175390D-01  0.28019238D-01
 -0.54702647D-01 -0.51188200D-01 -0.39647240D-01  0.45291754D+00  0.42381923D+00
  0.32826437D+00  0.90513773D-04  0.11357247D-01 -0.16929770D-01  0.15131775D+00
 -0.30616629D-02 -0.73722327D-03 -0.16915285D-02  0.22546455D-01 -0.14049665D-02
 -0.12960044D-03  0.15345670D-02 -0.40000078D-02  0.25395466D-01 -0.20893270D-01
  0.11918659D-02  0.21906522D-02  0.35803871D-02  0.48060735D-02  0.46630938D-02
  0.46470364D-03  0.19501070D-02  0.53232030D-02 -0.60240175D-05  0.16240342D-01
  0.15973681D-01  0.12244461D-01  0.25465119D-01  0.25046989D-01  0.19199513D-01
  0.47328350D+00  0.46551233D+00  0.35683370D+00 -0.26854305D-02  0.57087347D-02
  0.95889167D-02  0.15944772D+00 -0.23045242D-02  0.19254935D-02  0.28080261D-03
  0.29409038D-01  0.29036938D-02 -0.26879335D-02 -0.21576036D-03  0.31189964D-02
  0.23636039D-01  0.20428429D-01 -0.26045993D-02 -0.46983255D-02 -0.69265703D-02
 -0.54421336D-02 -0.12490641D-02  0.11944984D-02 -0.13842224D-02  0.84598010D-02
  0.20947196D-02  0.37785753D-02  0.55706160D-02  0.39375655D-02  0.80013629D-03
  0.21692838D-02  0.11538205D-02  0.88373630D-02  0.58665905D-02  0.10789566D-01
  0.17660208D-01  0.23799370D-01  0.23542646D-01  0.26203637D-02  0.10546975D-01
  0.28192545D-01 -0.40267353D-04 -0.21153605D+00 -0.21719372D+00 -0.16414277D+00
 -0.76910607D-01 -0.78967631D-01 -0.59679286D-01  0.99868472D+00  0.10253952D+01
  0.77493590D+00 -0.15457196D-01 -0.66775394D-01 -0.25265520D-01  0.33103004D+00
 -0.80260332D-02 -0.10667031D-01 -0.41400951D-02  0.52616516D-01  0.12905838D-01
 -0.46938452D-02 -0.82119929D-02  0.57414786D-02 -0.10133030D+00  0.11220500D-01
MO   10     MO 0.0        OCC NO =    2.0000000  ORB. ENERGY =   -0.414076
  0.22991014D-01  0.41472508D-01  0.61141409D-01  0.43348354D-01  0.83551859D-02
  0.37024162D-02 -0.13232191D-01 -0.34566305D-03  0.74916599D-02  0.13946420D-01
  0.22941730D-01  0.30806893D-01  0.29005851D-01  0.23836039D-02  0.11706661D-01
  0.31106791D-01 -0.41934127D-04 -0.21727461D+00 -0.20331550D+00 -0.15747571D+00
  0.27797018D+00  0.26011160D+00  0.20146649D+00  0.65612151D-01  0.61396807D-01
  0.47554200D-01 -0.21855486D-01 -0.65750602D-01  0.84539128D-01  0.21862572D-01
  0.67432851D-02  0.15895326D-02  0.10576723D-01  0.35319933D-02 -0.15474675D-01
  0.12866265D-01  0.26084099D-02  0.15216003D-01  0.61548345D-02 -0.30604174D-04
  0.32189147D-02  0.59163722D-02  0.96696786D-02  0.12979933D-01  0.12593783D-01
  0.12550416D-02  0.55482236D-02  0.15144974D-01 -0.17138852D-04  0.36043775D+00
  0.35451947D+00  0.27175327D+00 -0.43698573D+00 -0.42981056D+00 -0.32946687D+00
 -0.91436168D-02 -0.89934814D-02 -0.68938609D-02 -0.97277600D-02  0.11760456D+00
 -0.14765986D+00 -0.23073006D-02  0.99045797D-03  0.15903613D-01 -0.22319959D-01
  0.19573374D-04 -0.24166092D-01  0.24914499D-01 -0.74840688D-03 -0.20825192D-01
  0.75704327D-02  0.39284059D-02  0.30779842D-01  0.55522444D-01  0.81854718D-01
  0.56119015D-01  0.13874541D-01 -0.25854497D-02  0.13185334D-01  0.91248780D-03
 -0.21350840D-01 -0.38513869D-01 -0.56779595D-01 -0.42016834D-01 -0.95906024D-02
 -0.67967399D-02 -0.12516744D-01  0.18355300D-02 -0.25350018D-01 -0.46622597D-01
 -0.76311205D-01 -0.10283903D+00 -0.10172970D+00 -0.11322806D-01 -0.45914920D-01
 -0.12273267D+00  0.17529882D-03  0.86646240D+00  0.88963650D+00  0.67233714D+00
  0.33726580D+00  0.34628619D+00  0.26170359D+00  0.21179187D+00  0.21745638D+00
  0.16434128D+00  0.69053894D-01  0.26468605D+00  0.11536927D+00  0.68802497D-01
  0.35918041D-01  0.44346785D-01  0.17302103D-01  0.11492295D-01 -0.41249817D-01
  0.24009770D-01  0.17240047D-01 -0.33297107D-01 -0.21629189D-01  0.60422063D-03
MO   11     MO 0.0        OCC NO =    2.0000000  ORB. ENERGY =   -0.284615
  0.50312473D-02  0.90756524D-02  0.13379904D-01  0.13114658D-01  0.38257035D-02
 -0.19388768D-03 -0.53694421D-03  0.12053103D-02 -0.14274070D-02 -0.26572505D-02
 -0.43711522D-02 -0.58697237D-02 -0.55265662D-02 -0.45415473D-03 -0.24580193D-02
 -0.65314176D-02  0.88048072D-05 -0.20658673D-01 -0.19331428D-01 -0.14972938D-01
  0.16271719D-01  0.15226320D-01  0.11793373D-01 -0.29036597D-01 -0.27171100D-01
 -0.21045068D-01  0.36498187D-02 -0.61540420D-02  0.64744733D-02 -0.80628407D-02
  0.11781607D-02  0.97155581D-03 -0.54484171D-03 -0.38291895D-02 -0.40512328D-02
  0.40626426D-02 -0.11409704D-04 -0.11797076D-01 -0.65465945D-01 -0.17170963D-01
  0.59253712D-02  0.10890845D-01  0.17799924D-01  0.23893434D-01  0.23182609D-01
  0.23102779D-02  0.99740432D-02  0.27226125D-01 -0.30810520D-04  0.77222997D-01
  0.75955020D-01  0.58222541D-01 -0.61134381D-01 -0.60130573D-01 -0.46092474D-01
  0.92285098D+00  0.90769805D+00  0.69578663D+00 -0.15163961D-01  0.25488597D-01
 -0.19464504D-01  0.29572312D+00 -0.98752904D-02  0.65225841D-02 -0.26401750D-02
  0.78190258D-01 -0.13175355D-02  0.84310295D-03  0.47443250D-03  0.66060469D-03
 -0.28572088D-03 -0.85349263D-04  0.20424351D-02  0.36842615D-02  0.54315725D-02
  0.56809834D-02  0.20459008D-02  0.92899440D-03  0.91148693D-03  0.16994319D-01
  0.13352031D-02  0.24085158D-02  0.35507872D-02  0.24288837D-02  0.58826849D-03
  0.34604971D-02 -0.19745016D-02  0.21109337D-01  0.10173966D-02  0.18711494D-02
  0.30626707D-02  0.41273372D-02  0.40828156D-02  0.45442903D-03  0.18375931D-02
  0.49119701D-02 -0.70157566D-05  0.83208969D-01  0.85434447D-01  0.64566541D-01
 -0.18122274D+00 -0.18606966D+00 -0.14062096D+00 -0.98413343D+00 -0.10104547D+01
 -0.76364474D+00 -0.26656297D-02  0.25012729D-01 -0.57011257D-01 -0.31666112D+00
 -0.15940546D-02  0.48073590D-02 -0.11905538D-01 -0.65445319D-01 -0.37706377D-02
  0.82404589D-03  0.29465918D-02  0.72085534D-02  0.49630728D-01 -0.75152064D-02
MO   12     MO 0.0        OCC NO =    2.0000000  ORB. ENERGY =   -0.269274
 -0.27280929D-01 -0.49210904D-01 -0.72549844D-01 -0.63993690D-01 -0.22002011D-01
  0.31554711D-03 -0.12494113D-02  0.46434124D-03  0.58597257D-02  0.10908423D-01
  0.17944254D-01  0.24096121D-01  0.22687406D-01  0.18643752D-02  0.99221268D-02
  0.26364949D-01 -0.35541793D-04  0.50794822D-01  0.47531439D-01  0.36814936D-01
 -0.88168595D-01 -0.82504082D-01 -0.63902600D-01  0.34227681D-02  0.32028676D-02
  0.24807448D-02 -0.12951816D-01  0.14766774D-01 -0.37039841D-01  0.10185120D-02
 -0.15187850D-01  0.90704513D-02  0.79933803D-02  0.41935627D-03  0.16595505D-01
 -0.14684527D-01 -0.19109778D-02  0.93080123D-01 -0.67290742D-02 -0.37492791D-02
 -0.27034700D-01 -0.49689837D-01 -0.81212733D-01 -0.10901457D+00 -0.10577141D+00
 -0.10540719D-01 -0.45090950D-01 -0.12308467D+00  0.13928911D-03  0.21200010D+00
  0.20851912D+00  0.15983820D+00  0.23178612D+00  0.22798026D+00  0.17475593D+00
  0.13255099D+00  0.13037454D+00  0.99937269D-01  0.65311300D-01  0.60646846D-01
  0.65179067D-01  0.44098052D-01  0.66136462D-01  0.15598348D-01  0.14604378D-01
  0.11162759D-01  0.35307738D-02 -0.83818766D-02  0.48511027D-02 -0.64756642D-02
  0.18678591D-03  0.10373950D-02 -0.66703799D-02 -0.12032414D-01 -0.17738949D-01
 -0.18257181D-01 -0.11292844D-01  0.33815547D-02 -0.34384067D-02  0.21375099D-02
 -0.63485238D-02 -0.11451831D-01 -0.16883018D-01 -0.19223649D-01 -0.27371205D-02
 -0.56485846D-02  0.46673865D-02  0.47351901D-02 -0.28157279D-02 -0.51785585D-02
 -0.84761910D-02 -0.11422742D-01 -0.11299525D-01 -0.12576694D-02 -0.53791858D-02
 -0.14378809D-01  0.20537222D-04  0.10548031D+00  0.10830145D+00  0.81848136D-01
  0.14681316D+01  0.15073977D+01  0.11392063D+01 -0.10674229D+00 -0.10959718D+00
 -0.82827374D-01  0.10729294D-01  0.35258938D-01  0.46989483D+00 -0.34256810D-01
 -0.28769609D-02  0.93731834D-02  0.96100300D-01 -0.71913540D-02 -0.29825750D-02
  0.32162102D-02 -0.23363520D-03 -0.58412601D-01  0.47767579D-02 -0.41539131D-02
END DATA
 TOTAL ENERGY =   -169.913419479631 THE VIRIAL(-V/T)=   2.00271596
