 Formamide B3LYP/6-311G** trial 6
GAUSSIAN             12 MOL ORBITALS    120 PRIMITIVES        6 NUCLEI
  H    1    (CENTRE  1)  -0.78184562  2.54337440  0.35951456  CHARGE =  1.0
  C    2    (CENTRE  2)  -0.01858866  0.82058839 -0.11543834  CHARGE =  6.0
  N    3    (CENTRE  3)  -1.82243430 -1.10709696 -0.05963971  CHARGE =  7.0
  H    4    (CENTRE  4)  -1.20841108 -3.10571483  0.21827433  CHARGE =  1.0
  H    5    (CENTRE  5)  -3.72131203 -0.55425127  0.77510348  CHARGE =  1.0
  O    6    (CENTRE  6)   2.32194961  0.47848963  0.05358048  CHARGE =  8.0
CENTRE ASSIGNMENTS    1  1  1  1  1  1  1  1  2  2  2  2  2  2  2  2  2  2  2  2
CENTRE ASSIGNMENTS    2  2  2  2  2  2  2  2  2  2  2  2  2  2  2  2  2  2  2  2
CENTRE ASSIGNMENTS    3  3  3  3  3  3  3  3  3  3  3  3  3  3  3  3  3  3  3  3
CENTRE ASSIGNMENTS    3  3  3  3  3  3  3  3  3  3  3  3  4  4  4  4  4  4  4  4
CENTRE ASSIGNMENTS    5  5  5  5  5  5  5  5  6  6  6  6  6  6  6  6  6  6  6  6
CENTRE ASSIGNMENTS    6  6  6  6  6  6  6  6  6  6  6  6  6  6  6  6  6  6  6  6
TYPE ASSIGNMENTS      1  1  1  1  1  2  3  4  1  1  1  1  1  1  1  1  1  2  2  2
TYPE ASSIGNMENTS      3  3  3  4  4  4  1  2  3  4  1  2  3  4  5  6  7  8  9 10
TYPE ASSIGNMENTS      1  1  1  1  1  1  1  1  1  2  2  2  3  3  3  4  4  4  1  2
TYPE ASSIGNMENTS      3  4  1  2  3  4  5  6  7  8  9 10  1  1  1  1  1  2  3  4
TYPE ASSIGNMENTS      1  1  1  1  1  2  3  4  1  1  1  1  1  1  1  1  1  2  2  2
TYPE ASSIGNMENTS      3  3  3  4  4  4  1  2  3  4  1  2  3  4  5  6  7  8  9 10
EXPONENTS  0.3386500D+02 0.5094790D+01 0.1158790D+01 0.3258400D+00 0.1027410D+00
EXPONENTS  0.7500000D+00 0.7500000D+00 0.7500000D+00 0.4563240D+04 0.6820240D+03
EXPONENTS  0.1549730D+03 0.4445530D+02 0.1302900D+02 0.1827730D+01 0.2096420D+02
EXPONENTS  0.4803310D+01 0.1459330D+01 0.2096420D+02 0.4803310D+01 0.1459330D+01
EXPONENTS  0.2096420D+02 0.4803310D+01 0.1459330D+01 0.2096420D+02 0.4803310D+01
EXPONENTS  0.1459330D+01 0.4834560D+00 0.4834560D+00 0.4834560D+00 0.4834560D+00
EXPONENTS  0.1455850D+00 0.1455850D+00 0.1455850D+00 0.1455850D+00 0.6260000D+00
EXPONENTS  0.6260000D+00 0.6260000D+00 0.6260000D+00 0.6260000D+00 0.6260000D+00
EXPONENTS  0.6293480D+04 0.9490440D+03 0.2187760D+03 0.6369160D+02 0.1882820D+02
EXPONENTS  0.2720230D+01 0.3063310D+02 0.7026140D+01 0.2112050D+01 0.3063310D+02
EXPONENTS  0.7026140D+01 0.2112050D+01 0.3063310D+02 0.7026140D+01 0.2112050D+01
EXPONENTS  0.3063310D+02 0.7026140D+01 0.2112050D+01 0.6840090D+00 0.6840090D+00
EXPONENTS  0.6840090D+00 0.6840090D+00 0.2008780D+00 0.2008780D+00 0.2008780D+00
EXPONENTS  0.2008780D+00 0.9130000D+00 0.9130000D+00 0.9130000D+00 0.9130000D+00
EXPONENTS  0.9130000D+00 0.9130000D+00 0.3386500D+02 0.5094790D+01 0.1158790D+01
EXPONENTS  0.3258400D+00 0.1027410D+00 0.7500000D+00 0.7500000D+00 0.7500000D+00
EXPONENTS  0.3386500D+02 0.5094790D+01 0.1158790D+01 0.3258400D+00 0.1027410D+00
EXPONENTS  0.7500000D+00 0.7500000D+00 0.7500000D+00 0.8588500D+04 0.1297230D+04
EXPONENTS  0.2992960D+03 0.8737710D+02 0.2567890D+02 0.3740040D+01 0.4211750D+02
EXPONENTS  0.9628370D+01 0.2853320D+01 0.4211750D+02 0.9628370D+01 0.2853320D+01
EXPONENTS  0.4211750D+02 0.9628370D+01 0.2853320D+01 0.4211750D+02 0.9628370D+01
EXPONENTS  0.2853320D+01 0.9056610D+00 0.9056610D+00 0.9056610D+00 0.9056610D+00
EXPONENTS  0.2556110D+00 0.2556110D+00 0.2556110D+00 0.2556110D+00 0.1292000D+01
EXPONENTS  0.1292000D+01 0.1292000D+01 0.1292000D+01 0.1292000D+01 0.1292000D+01
MO    1     MO 0.0        OCC NO =    2.0000000  ORB. ENERGY =  -19.093387
 -0.78356898D-04 -0.14134466D-03 -0.20837929D-03 -0.32376781D-04  0.71057885D-04
 -0.51256349D-03  0.21715780D-03 -0.13273053D-05 -0.10302302D-04 -0.19178692D-04
 -0.31548767D-04 -0.42364699D-04 -0.39887961D-04 -0.32778593D-05  0.47525829D-04
  0.12628503D-03 -0.17024104D-06  0.96140410D-03  0.89963736D-03  0.69680391D-03
 -0.17022809D-03 -0.15929155D-03 -0.12337747D-03 -0.27288549D-04 -0.25535359D-04
 -0.19778122D-04  0.16940834D-03 -0.53502707D-03  0.22235643D-03  0.70253409D-04
  0.54942191D-03  0.46143186D-03 -0.17246805D-03  0.14817213D-04 -0.67207955D-03
  0.60295637D-03  0.69123179D-04  0.31555841D-03 -0.11180860D-03  0.15160809D-03
 -0.24286497D-05 -0.44638634D-05 -0.72957080D-05 -0.97932732D-05 -0.95019255D-05
 -0.94692054D-06  0.33246252D-04  0.90752225D-04 -0.10270001D-06  0.28835167D-03
  0.28361703D-03  0.21740372D-03  0.19609993D-03  0.19288003D-03  0.14785021D-03
 -0.42396969D-04 -0.41700823D-04 -0.31965338D-04 -0.43660201D-04 -0.23915807D-03
 -0.21950041D-03  0.33567881D-04 -0.86301904D-04 -0.21413877D-03  0.22244561D-03
 -0.93786808D-05 -0.16696844D-03  0.94410411D-04  0.72558031D-04 -0.36246042D-03
 -0.80325529D-04  0.41108566D-04 -0.24998592D-04 -0.45093894D-04 -0.66480286D-04
  0.26008780D-03 -0.17233075D-04 -0.35906604D-04  0.84803101D-04 -0.38694350D-04
  0.92638605D-06  0.16710683D-05  0.24635951D-05 -0.14676924D-03  0.25679128D-04
 -0.37319058D-04  0.19349424D-04  0.10514382D-03  0.66433652D+00  0.12218174D+01
  0.19998534D+01  0.26950561D+01  0.26659845D+01  0.29673169D+00  0.63048315D+00
  0.16853102D+01 -0.24071250D-02 -0.63326356D-02 -0.65020061D-02 -0.49138498D-02
  0.57395486D-03  0.58930565D-03  0.44536401D-03 -0.71607026D-03 -0.73522202D-03
 -0.55563938D-03  0.86740651D-02 -0.94270055D-03  0.16712654D-03 -0.74040300D-04
 -0.21507079D-02  0.50482766D-03 -0.54504949D-04  0.46619979D-04  0.66153418D-03
 -0.33512293D-03 -0.32641124D-03 -0.28191624D-03  0.16154020D-03 -0.56536730D-04
MO    2     MO 0.0        OCC NO =    2.0000000  ORB. ENERGY =  -14.357985
 -0.76147326D-04 -0.13735891D-03 -0.20250324D-03 -0.28437440D-03  0.47911577D-04
 -0.54898816D-04  0.50772196D-03  0.10811603D-03  0.17682045D-05  0.32916769D-05
  0.54147775D-05  0.72711374D-05  0.68460499D-05  0.56258550D-06  0.48219986D-04
  0.12812953D-03 -0.17272756D-06 -0.90145790D-03 -0.84354249D-03 -0.65335627D-03
 -0.10183331D-02 -0.95290887D-03 -0.73806475D-03 -0.97902681D-04 -0.91612788D-04
 -0.70957645D-04  0.71963660D-04  0.50095817D-03  0.77286620D-03  0.12725677D-03
  0.71071699D-03 -0.22764149D-03 -0.28827129D-03  0.15000344D-04 -0.16765187D-05
 -0.60642391D-04  0.62318909D-04 -0.15279697D-02 -0.50446457D-04  0.16578290D-03
  0.55295808D+00  0.10163381D+01  0.16610962D+01  0.22297450D+01  0.21634106D+01
  0.21559609D+00  0.48382504D+00  0.13206962D+01 -0.14945695D-02 -0.30843355D-03
 -0.30336916D-03 -0.23254452D-03 -0.35845755D-03 -0.35257179D-03 -0.27026029D-03
  0.18988919D-02  0.18677127D-02  0.14316760D-02  0.76845029D-02  0.57977304D-03
  0.43569634D-03  0.12289267D-03 -0.17228517D-02 -0.30829941D-03 -0.35772246D-03
  0.16481220D-05  0.20371551D-03  0.49675887D-03 -0.70047438D-03  0.26209842D-03
 -0.44390057D-03 -0.17686482D-03  0.43856219D-04  0.79110362D-04  0.11662953D-03
 -0.27183749D-03  0.68016832D-04  0.42976120D-03 -0.91229198D-03  0.15554780D-03
  0.41403311D-04  0.74685666D-04  0.11010636D-03 -0.14106418D-03  0.40366647D-04
 -0.68917500D-03  0.34718639D-03  0.34448806D-03  0.45310081D-05  0.83332236D-05
  0.13639702D-04  0.18381228D-04  0.18182950D-04  0.20238142D-05  0.40618221D-04
  0.10857436D-03 -0.15507652D-06 -0.40181161D-03 -0.41255832D-03 -0.31178834D-03
  0.19766323D-04  0.20294986D-04  0.15337807D-04 -0.63304430D-04 -0.64997548D-04
 -0.49121484D-04 -0.78541284D-04  0.43467974D-03 -0.41864229D-04  0.57346561D-04
 -0.15444079D-03  0.97568179D-04  0.13510153D-03 -0.13669179D-04 -0.43244944D-03
  0.37172982D-03  0.60719628D-04 -0.41706268D-03 -0.72107141D-04 -0.10427570D-03
MO    3     MO 0.0        OCC NO =    2.0000000  ORB. ENERGY =  -10.275185
 -0.83651476D-04 -0.15089533D-03 -0.22245949D-03 -0.17120420D-02  0.37233799D-03
 -0.12738380D-02  0.29639221D-02  0.80287085D-03  0.43812520D+00  0.81561073D+00
  0.13416720D+01  0.18016403D+01  0.16963122D+01  0.13939727D+00  0.37103788D+00
  0.98591713D+00 -0.13290852D-02 -0.54585825D-03 -0.51078883D-03 -0.39562569D-03
 -0.14832766D-02 -0.13879814D-02 -0.10750453D-02 -0.10030927D-02 -0.93864760D-03
 -0.72701885D-03  0.72223588D-02 -0.59735931D-04  0.15318823D-02  0.81372422D-03
 -0.12518765D-03  0.97360919D-04 -0.11794437D-03 -0.55548299D-05  0.74315807D-03
  0.72164252D-03 -0.14648006D-02 -0.12650226D-02 -0.29693073D-03  0.96172985D-03
 -0.39522391D-04 -0.72642241D-04 -0.11872599D-03 -0.15936987D-03 -0.15462865D-03
 -0.15409618D-04 -0.27217035D-04 -0.74294283D-04  0.84075334D-07  0.93861539D-03
  0.92320361D-03  0.70767226D-03  0.13199842D-02  0.12983105D-02  0.99520660D-03
  0.92278635D-06  0.90763448D-06  0.69573790D-06  0.25428746D-03 -0.40288459D-03
 -0.67682790D-03 -0.25848328D-05 -0.44816356D-03 -0.16509642D-03 -0.15387004D-03
 -0.13610050D-04 -0.17197932D-03 -0.52101579D-03  0.69299511D-03 -0.14532498D-02
  0.11816903D-03 -0.74862982D-04 -0.90155554D-05 -0.16262776D-04 -0.23975618D-04
  0.70742452D-05  0.20549932D-04  0.14209329D-03  0.41197740D-04  0.14110580D-04
 -0.22781670D-04 -0.41094883D-04 -0.60584689D-04  0.93430036D-04 -0.25938113D-04
  0.12617787D-03  0.18397224D-03  0.79850590D-05 -0.77901224D-04 -0.14327238D-03
 -0.23450620D-03 -0.31602684D-03 -0.31261786D-03 -0.34795260D-04 -0.77364892D-04
 -0.20679988D-03  0.29537184D-06 -0.25106229D-02 -0.25777711D-02 -0.19481342D-02
  0.35094622D-03  0.36033251D-03  0.27231900D-03 -0.19730385D-03 -0.20258087D-03
 -0.15309921D-03  0.34693335D-03  0.15039784D-02 -0.18402550D-03  0.14760380D-03
 -0.97207577D-03  0.54597952D-03 -0.10058265D-03  0.30792075D-04 -0.22066766D-02
  0.91366328D-03  0.12930133D-02  0.99979961D-03 -0.61836847D-03 -0.73515667D-04
MO    4     MO 0.0        OCC NO =    2.0000000  ORB. ENERGY =   -1.019069
  0.68492512D-02  0.12355072D-01  0.18214633D-01  0.77929190D-02 -0.82862609D-03
  0.53091790D-02 -0.52780833D-02 -0.71398174D-03 -0.54541926D-01 -0.10153486D+00
 -0.16702389D+00 -0.22428505D+00 -0.21117283D+00 -0.17353477D-01 -0.85945557D-01
 -0.22837344D+00  0.30786335D-03  0.17013536D+00  0.15920478D+00  0.12331025D+00
 -0.51859706D-01 -0.48527908D-01 -0.37586740D-01  0.19990370D-01  0.18706061D-01
  0.14488567D-01  0.11878717D+00  0.49786756D-01 -0.19064906D-01  0.48018485D-02
  0.11246755D-01 -0.80289641D-03  0.79092949D-03  0.72331377D-04  0.19688194D-01
 -0.81836404D-02 -0.11504553D-01 -0.40926010D-02  0.30179577D-02 -0.74351085D-03
 -0.29746406D-01 -0.54673958D-01 -0.89358746D-01 -0.11994924D+00 -0.11638077D+00
 -0.11598001D-01 -0.48946156D-01 -0.13360822D+00  0.15119811D-03  0.64646244D-01
  0.63584773D-01  0.48740255D-01  0.45140000D-01  0.44398815D-01  0.34033456D-01
  0.11092145D-01  0.10910015D-01  0.83629602D-02  0.70209687D-01  0.23815491D-01
  0.16494164D-01  0.38188989D-02  0.17101315D-01  0.27619477D-02  0.42611531D-03
  0.49450559D-03  0.50852445D-02  0.99028798D-05 -0.50951473D-02  0.96418635D-02
 -0.59910804D-03  0.50242415D-03  0.38065569D-02  0.68664856D-02  0.10123010D-01
  0.35319985D-02 -0.44758148D-05 -0.49079504D-03  0.44799530D-02 -0.40499768D-03
  0.31134087D-02  0.56161450D-02  0.82796781D-02  0.44447613D-02 -0.15718203D-03
  0.39696198D-02 -0.50525496D-03 -0.17220050D-02 -0.12014468D+00 -0.22096462D+00
 -0.36167176D+00 -0.48739857D+00 -0.48214099D+00 -0.53663668D-01 -0.21388202D+00
 -0.57171638D+00  0.81658130D-03 -0.38301056D+00 -0.39325443D+00 -0.29719954D+00
  0.45373610D-01  0.46587156D-01  0.35207948D-01 -0.25688158D-01 -0.26375204D-01
 -0.19932893D-01  0.30442312D+00 -0.12634719D+00  0.14654831D-01 -0.84719867D-02
  0.80878516D-01 -0.10555825D-01  0.88682228D-03 -0.61018209D-03  0.35535296D-01
 -0.20811267D-01 -0.14724029D-01 -0.13361490D-01  0.77930185D-02 -0.12418721D-02
MO    5     MO 0.0        OCC NO =    2.0000000  ORB. ENERGY =   -0.886281
  0.50749675D-02  0.91545172D-02  0.13496171D-01  0.75007811D-02 -0.47002130D-03
 -0.19237954D-02 -0.68765106D-02 -0.12173800D-02 -0.20082695D-01 -0.37385801D-01
 -0.61499291D-01 -0.82583227D-01 -0.77755221D-01 -0.63896641D-02 -0.32146885D-01
 -0.85420293D-01  0.11515252D-03 -0.22873450D+00 -0.21403914D+00 -0.16578159D+00
 -0.92053642D-01 -0.86139528D-01 -0.66718394D-01  0.39978518D-02  0.37410043D-02
  0.28975524D-02  0.45169270D-01 -0.71118526D-01 -0.33310652D-01  0.67594586D-03
  0.48966196D-02 -0.17602349D-02  0.15184500D-03  0.16271612D-04 -0.48005374D-02
  0.81930795D-02 -0.33925421D-02  0.24738479D-01 -0.33060946D-02 -0.87285085D-03
 -0.10357254D+00 -0.19036655D+00 -0.31113380D+00 -0.41764533D+00 -0.40522047D+00
 -0.40382508D-01 -0.17093633D+00 -0.46660452D+00  0.52803432D-03  0.56655097D-01
  0.55724838D-01  0.42715303D-01  0.79898892D-01  0.78586977D-01  0.60240041D-01
  0.53165582D-01  0.52292620D-01  0.40084371D-01  0.24649711D+00  0.17807998D-01
  0.26281116D-01  0.18943302D-01  0.69509770D-01  0.16277813D-02  0.39602676D-02
  0.20640760D-02  0.25488658D-02  0.10145286D-01 -0.12694152D-01  0.77935177D-02
 -0.85988140D-02 -0.22811188D-03  0.15745694D-01  0.28402985D-01  0.41873486D-01
  0.20314191D-01  0.29339992D-03 -0.48288113D-02  0.15816441D-01 -0.16109604D-02
  0.16589298D-01  0.29924727D-01  0.44116936D-01  0.20422575D-01  0.63989850D-03
  0.15960860D-01 -0.35008067D-02 -0.58026073D-02  0.54212714D-01  0.99705553D-01
  0.16319663D+00  0.21992816D+00  0.21755579D+00  0.24214581D-01  0.96931242D-01
  0.25910162D+00 -0.37007431D-03  0.97880697D-01  0.10049858D+00  0.75951163D-01
 -0.51206249D-01 -0.52575793D-01 -0.39733822D-01  0.12377378D-01  0.12708419D-01
  0.96043067D-02 -0.13974189D+00  0.31598031D-01 -0.17467673D-01  0.44256878D-02
 -0.39684095D-01  0.19959718D-02 -0.18873809D-02  0.29303736D-03 -0.84777102D-02
  0.49073382D-02  0.35703720D-02  0.15840896D-01 -0.43525674D-02  0.16871197D-02
MO    6     MO 0.0        OCC NO =    2.0000000  ORB. ENERGY =   -0.626546
  0.34297423D-01  0.61867657D-01  0.91209234D-01  0.49610059D-01  0.27626350D-02
  0.51770155D-02 -0.19300503D-01 -0.56968682D-02 -0.58792911D-01 -0.10944846D+00
 -0.18004169D+00 -0.24176577D+00 -0.22763159D+00 -0.18706003D-01 -0.94849355D-01
 -0.25203250D+00  0.33975741D-03 -0.20500648D+00 -0.19183556D+00 -0.14858405D+00
  0.17255557D+00  0.16146950D+00  0.12506437D+00  0.37145150D-01  0.34758708D-01
  0.26921963D-01  0.13886806D+00 -0.60425546D-01  0.48915644D-01  0.94971340D-02
  0.32441868D-01 -0.76183558D-02  0.56193509D-02  0.12439201D-02  0.52012938D-03
  0.30013891D-02 -0.35215185D-02  0.31186466D-03 -0.25237166D-02  0.59976187D-02
  0.33182744D-01  0.60989955D-01  0.99681569D-01  0.13380591D+00  0.12982521D+00
  0.12937816D-01  0.55330477D-01  0.15103549D+00 -0.17091973D-03  0.15608603D+00
  0.15352315D+00  0.11768160D+00  0.44153925D+00  0.43428931D+00  0.33290001D+00
 -0.59245616D-01 -0.58272822D-01 -0.44668434D-01 -0.81519775D-01  0.51024455D-01
  0.14688580D+00 -0.20364781D-01 -0.32560291D-01  0.65018385D-02  0.18008413D-01
 -0.26028465D-02 -0.42082404D-02  0.43738138D-02 -0.16557343D-03  0.26808356D-01
  0.66511422D-02  0.89497947D-02 -0.23218319D-01 -0.41882535D-01 -0.61745897D-01
 -0.33366531D-01 -0.38894761D-02  0.75487886D-02 -0.14019529D-01  0.13856624D-02
 -0.95864173D-02 -0.17292529D-01 -0.25493746D-01 -0.13963113D-01 -0.18883736D-02
 -0.40796683D-02  0.87419655D-02  0.21686523D-02  0.41975244D-01  0.77198955D-01
  0.12635815D+00  0.17028364D+00  0.16844679D+00  0.18748608D-01  0.75752136D-01
  0.20248891D+00 -0.28921449D-03 -0.15034946D+00 -0.15437065D+00 -0.11666464D+00
  0.12573161D+00  0.12909438D+00  0.97562261D-01  0.15001257D-01  0.15402475D-01
  0.11640323D-01 -0.11212025D+00 -0.43699197D-01  0.41274336D-01  0.65741197D-02
 -0.40415462D-01 -0.72042349D-02  0.54516758D-02  0.73362301D-04  0.22229100D-02
  0.90655505D-03 -0.31294650D-02 -0.17015150D-01 -0.50556629D-02  0.15969236D-03
MO    7     MO 0.0        OCC NO =    2.0000000  ORB. ENERGY =   -0.527397
 -0.18899809D-01 -0.34092559D-01 -0.50261418D-01 -0.28721986D-01 -0.45408555D-02
 -0.41440644D-02  0.72672847D-02  0.22688840D-02 -0.13456215D-01 -0.25049993D-01
 -0.41207003D-01 -0.55334089D-01 -0.52099130D-01 -0.42813324D-02 -0.22064013D-01
 -0.58628213D-01  0.79034927D-04 -0.26123088D-01 -0.24444774D-01 -0.18933422D-01
 -0.35674392D+00 -0.33382442D+00 -0.25855991D+00 -0.72436213D-01 -0.67782448D-01
 -0.52500126D-01  0.37230745D-01 -0.85951854D-02 -0.11378920D+00 -0.23927147D-01
  0.49081344D-02 -0.83142909D-04 -0.96332002D-02 -0.24704082D-02 -0.71647315D-02
  0.96966797D-02 -0.25319482D-02  0.65323484D-02  0.32022770D-02 -0.70617135D-03
  0.36815980D-02  0.67667852D-02  0.11059588D-01  0.14845655D-01  0.14404000D-01
  0.14354400D-02  0.60316111D-02  0.16464476D-01 -0.18632070D-04  0.71279537D+00
  0.70109149D+00  0.53741449D+00  0.22043589D-01  0.21681640D-01  0.16619839D-01
 -0.19525465D+00 -0.19204862D+00 -0.14721290D+00 -0.73418014D-02  0.23707994D+00
  0.77346043D-02 -0.65668937D-01 -0.49633681D-02  0.34103105D-01 -0.19205662D-03
 -0.97700326D-02  0.15531586D-02  0.38300330D-02 -0.53831917D-02  0.28718761D-01
  0.18558417D-01 -0.99618394D-02  0.61931584D-02  0.11171574D-01  0.16469845D-01
  0.93258504D-02  0.11141137D-02  0.91473302D-02  0.63801388D-02 -0.32012895D-02
 -0.35148928D-01 -0.63403651D-01 -0.93473693D-01 -0.57465137D-01 -0.95604062D-02
 -0.16362452D-01  0.56581824D-02  0.72368605D-02  0.19645864D-01  0.36131778D-01
  0.59139980D-01  0.79698624D-01  0.78838914D-01  0.87749962D-02  0.35306251D-01
  0.94375216D-01 -0.13479592D-03 -0.21849672D+00 -0.22434055D+00 -0.16954395D+00
 -0.31052097D+00 -0.31882605D+00 -0.24095077D+00 -0.80366052D-01 -0.82515494D-01
 -0.62360561D-01 -0.51483824D-01 -0.70053332D-01 -0.10232448D+00 -0.27444110D-01
 -0.23808248D-01 -0.10148403D-01 -0.14827670D-01 -0.37521678D-02  0.14213671D-01
 -0.92597778D-02 -0.49538931D-02  0.38152383D-01  0.12620097D-01  0.14654296D-02
MO    8     MO 0.0        OCC NO =    2.0000000  ORB. ENERGY =   -0.477599
 -0.23273188D-01 -0.41981510D-01 -0.61891811D-01 -0.37249479D-01 -0.32315040D-02
 -0.82450015D-02  0.76021744D-02  0.23721112D-02  0.16836983D-01  0.31343606D-01
  0.51559937D-01  0.69236342D-01  0.65188626D-01  0.53569834D-02  0.27453514D-01
  0.72949128D-01 -0.98340520D-04 -0.16500908D+00 -0.15440785D+00 -0.11959485D+00
 -0.29269391D+00 -0.27388939D+00 -0.21213792D+00 -0.54940989D-01 -0.51411229D-01
 -0.39819984D-01 -0.41806170D-01 -0.55513200D-01 -0.88563483D-01 -0.16766605D-01
 -0.11367013D-01 -0.61862992D-03 -0.11607856D-01 -0.17886012D-02  0.97143098D-02
 -0.76693177D-02 -0.20449922D-02  0.12326571D-01 -0.17933685D-02 -0.39208408D-02
 -0.45059665D-02 -0.82819762D-02 -0.13536006D-01 -0.18169834D-01 -0.17629285D-01
 -0.17568578D-02 -0.76539649D-02 -0.20893012D-01  0.23643635D-04 -0.13200498D+00
 -0.12983750D+00 -0.99525603D-01  0.69525612D+00  0.68384023D+00  0.52419071D+00
 -0.17925612D-01 -0.17631279D-01 -0.13515076D-01  0.13037931D-01 -0.44662560D-01
  0.22926443D+00 -0.61552382D-02  0.20369449D-02 -0.79302380D-02  0.36897635D-01
 -0.16501444D-02  0.10819239D-01 -0.11575261D-01  0.75602243D-03  0.21423619D-01
 -0.12377523D-01  0.13196798D-01 -0.35348095D-01 -0.63762919D-01 -0.94003350D-01
 -0.56424151D-01 -0.10023976D-01  0.68807024D-02 -0.14088242D-01  0.23426915D-02
  0.15972544D-01  0.28812191D-01  0.42476764D-01  0.27968754D-01  0.48882036D-02
  0.99983998D-02  0.64685302D-02 -0.50128478D-02 -0.34892535D-01 -0.64172761D-01
 -0.10503706D+00 -0.14155076D+00 -0.14002385D+00 -0.15585055D-01 -0.62869516D-01
 -0.16805308D+00  0.24002986D-03  0.42262741D+00  0.43393085D+00  0.32794049D+00
 -0.34106592D+00 -0.35018795D+00 -0.26465232D+00 -0.26996013D-01 -0.27718039D-01
 -0.20947732D-01  0.92906882D-01  0.13147605D+00 -0.11404882D+00 -0.91877172D-02
  0.43227718D-01  0.21275951D-01 -0.16100500D-01 -0.13663075D-02 -0.15685360D-01
  0.26864418D-02  0.12998918D-01  0.45184339D-01  0.22334183D-02  0.22577605D-02
MO    9     MO 0.0        OCC NO =    2.0000000  ORB. ENERGY =   -0.411876
  0.18359413D-01  0.33117762D-01  0.48824311D-01  0.32484203D-01  0.10074573D-01
 -0.63812498D-02 -0.81262474D-02 -0.25587517D-02  0.15603544D-01  0.29047446D-01
  0.47782776D-01  0.64164249D-01  0.60413059D-01  0.49645432D-02  0.25766505D-01
  0.68466429D-01 -0.92297529D-04 -0.37515434D+00 -0.35105203D+00 -0.27190336D+00
  0.15553361D+00  0.14554113D+00  0.11272723D+00  0.36852466D-01  0.34484828D-01
  0.26709832D-01 -0.45910061D-01 -0.12138397D+00  0.50413097D-01  0.12168915D-01
 -0.36328261D-02 -0.18154242D-02  0.26724709D-02  0.19802364D-02 -0.16639030D-01
  0.14371655D-01  0.22673751D-02  0.80577019D-02  0.20042293D-02  0.46378039D-02
 -0.24645444D-02 -0.45298379D-02 -0.74035364D-02 -0.99380149D-02 -0.96423611D-02
 -0.96091574D-03 -0.40655107D-02 -0.11097616D-01  0.12558648D-04  0.28455966D+00
  0.27988727D+00  0.21454472D+00 -0.12579551D+00 -0.12372998D+00 -0.94843949D-01
 -0.82123803D-01 -0.80775356D-01 -0.61917520D-01  0.61794180D-02  0.93249466D-01
 -0.44453218D-01 -0.26810655D-01  0.23962989D-02  0.10932129D-01 -0.59416851D-03
 -0.45410304D-02 -0.14444260D-01  0.16426954D-01 -0.19826943D-02  0.95433558D-03
  0.11843642D-01 -0.36546251D-02  0.13104232D-01  0.23638164D-01  0.34848885D-01
  0.28691224D-01  0.69321609D-02  0.98392441D-03  0.81857274D-02 -0.30193132D-02
 -0.18624696D-01 -0.33596295D-01 -0.49529794D-01 -0.37847954D-01 -0.83079969D-02
 -0.75638792D-02  0.24865438D-02  0.48587970D-02 -0.48243126D-01 -0.88726559D-01
 -0.14522637D+00 -0.19571095D+00 -0.19359982D+00 -0.21548212D-01 -0.87078048D-01
 -0.23276359D+00  0.33245574D-03  0.12451595D+01  0.12784621D+01  0.96618963D+00
 -0.62519807D-01 -0.64191939D-01 -0.48512651D-01  0.19611871D+00  0.20136403D+00
  0.15217959D+00  0.12788025D+00  0.38454354D+00 -0.15929552D-01  0.62686574D-01
  0.67744261D-01  0.65646318D-01 -0.33181901D-02  0.11024076D-01 -0.50443536D-01
  0.25247085D-01  0.25196451D-01  0.62972248D-02 -0.21439776D-01  0.19330283D-02
MO   10     MO 0.0        OCC NO =    2.0000000  ORB. ENERGY =   -0.396637
 -0.50466090D-03 -0.91033626D-03 -0.13420756D-02 -0.33243976D-02 -0.64651645D-03
 -0.44459817D-03 -0.20032087D-02  0.12236865D-01  0.31993334D-02  0.59558561D-02
  0.97973272D-02  0.13156166D-01  0.12387026D-01  0.10179244D-02  0.53620812D-02
  0.14248054D-01 -0.19207372D-04 -0.36122428D-02 -0.33801692D-02 -0.26180717D-02
 -0.10366812D+00 -0.97007822D-01 -0.75136308D-01  0.42873758D+00  0.40119274D+00
  0.31073929D+00 -0.81582401D-02 -0.39661184D-03 -0.32245435D-01  0.14495910D+00
 -0.51410075D-02 -0.54522825D-03 -0.46160959D-02  0.25252896D-01 -0.49366797D-02
  0.24064243D-02  0.25302554D-02 -0.60267166D-02  0.15900645D-01 -0.19403076D-01
  0.93062172D-02  0.17104848D-01  0.27956047D-01  0.37526338D-01  0.36409938D-01
  0.36284559D-02  0.15604238D-01  0.42594855D-01 -0.48202587D-04  0.15490569D+00
  0.15236218D+00  0.11679167D+00  0.51319960D-01  0.50477303D-01  0.38692858D-01
  0.52875131D+00  0.52006938D+00  0.39865385D+00 -0.23827949D-01  0.50382939D-01
  0.17522036D-01  0.17574793D+00 -0.12297900D-01  0.10444065D-01  0.26521901D-02
  0.34847269D-01  0.55408409D-03 -0.37976068D-02  0.32435227D-02  0.57351236D-02
  0.24659601D-01  0.24174636D-01  0.36444989D-03  0.65741561D-03  0.96920389D-03
 -0.10391366D-02  0.18187954D-04  0.32198882D-02  0.21938764D-02  0.95159902D-02
  0.13879933D-02  0.25037419D-02  0.36911755D-02  0.14947151D-02  0.83103373D-04
  0.41801356D-02  0.62274016D-03  0.88102272D-02  0.20340198D-02  0.37408766D-02
  0.61230136D-02  0.82515374D-02  0.81625280D-02  0.90851266D-03  0.35522619D-02
  0.94953578D-02 -0.13562200D-04 -0.15392033D+00 -0.15803703D+00 -0.11943548D+00
 -0.19991736D+00 -0.20526428D+00 -0.15512717D+00  0.88506496D+00  0.90873660D+00
  0.68677192D+00 -0.45308446D-02 -0.50679187D-01 -0.65066284D-01  0.29303770D+00
 -0.40551334D-02 -0.77601727D-02 -0.11217892D-01  0.48876375D-01  0.11514922D-01
 -0.36489831D-02 -0.78659390D-02  0.15351710D-01 -0.81914812D-01  0.11100334D-01
MO   11     MO 0.0        OCC NO =    2.0000000  ORB. ENERGY =   -0.280464
  0.72962989D-02  0.13161482D-01  0.19403494D-01  0.23112172D-01  0.62606807D-02
 -0.11633034D-02 -0.13970502D-02 -0.15812586D-02 -0.46245191D-02 -0.86089715D-02
 -0.14161677D-01 -0.19016756D-01 -0.17904992D-01 -0.14713724D-02 -0.75753301D-02
 -0.20129071D-01  0.27135393D-04 -0.49358449D-01 -0.46187347D-01 -0.35773886D-01
  0.15901110D-01  0.14879521D-01  0.11524764D-01 -0.73506174D-01 -0.68783668D-01
 -0.53275610D-01  0.10926862D-01 -0.14520300D-01  0.58928449D-02 -0.25049146D-01
  0.16496060D-03 -0.58564113D-03 -0.31849156D-02 -0.83068519D-02 -0.58550006D-02
  0.60270952D-02 -0.17209463D-03 -0.25025138D-01 -0.57540823D-01 -0.13470634D-01
  0.19978856D-01  0.36721181D-01  0.60016849D-01  0.80562627D-01  0.78165906D-01
  0.77896740D-02  0.33666227D-01  0.91898629D-01 -0.10399734D-03  0.13267663D+00
  0.13049812D+00  0.10003200D+00 -0.44748527D-01 -0.44013770D-01 -0.33738304D-01
  0.78067383D+00  0.76785541D+00  0.58859169D+00 -0.51970008D-01  0.40825237D-01
 -0.15372435D-01  0.24760435D+00 -0.33438153D-01  0.12858246D-01 -0.75248271D-03
  0.66106785D-01 -0.35329794D-02 -0.11232945D-02  0.46562740D-02  0.19405400D-03
  0.12570142D-02  0.31020187D-02  0.67384991D-02  0.12155291D-01  0.17920103D-01
  0.12359473D-01  0.52370211D-02  0.16039219D-02  0.35645745D-02  0.13606456D-01
  0.64013723D-02  0.11547162D-01  0.17023561D-01  0.12433587D-01  0.48207266D-02
  0.71002447D-02 -0.10460812D-02  0.14207281D-01  0.82112143D-03  0.15101691D-02
  0.24718233D-02  0.33310955D-02  0.32951629D-02  0.36676103D-03  0.15898437D-02
  0.42497246D-02 -0.60698727D-05  0.14171273D+00  0.14550293D+00  0.10996292D+00
 -0.52368011D+00 -0.53768627D+00 -0.40635299D+00 -0.10424744D+01 -0.10703561D+01
 -0.80891483D+00 -0.34288591D-02  0.43454022D-01 -0.16660235D+00 -0.33517810D+00
  0.12272413D-02  0.80087341D-02 -0.34156278D-01 -0.69834240D-01 -0.56066039D-02
 -0.18294417D-03  0.57895480D-02  0.23670001D-01  0.53253301D-01 -0.71815935D-02
MO   12     MO 0.0        OCC NO =    2.0000000  ORB. ENERGY =   -0.259173
 -0.17424720D-01 -0.31431709D-01 -0.46338624D-01 -0.46448280D-01 -0.15031644D-01
 -0.16995870D-02 -0.13730759D-03  0.82513237D-03  0.33733971D-02  0.62798919D-02
  0.10330363D-01  0.13871944D-01  0.13060958D-01  0.10733059D-02  0.54148405D-02
  0.14388245D-01 -0.19396360D-04  0.18008009D-01  0.16851059D-01  0.13051797D-01
 -0.78137524D-01 -0.73117471D-01 -0.56632307D-01 -0.23786287D-02 -0.22258104D-02
 -0.17239762D-02 -0.55924552D-02  0.44647737D-02 -0.25702492D-01 -0.78547625D-03
 -0.10400157D-01  0.10821144D-01  0.12107528D-01  0.13090627D-02  0.10507157D-01
 -0.83527852D-02 -0.21543721D-02  0.73474493D-01 -0.13943992D-01 -0.79233758D-02
 -0.14606847D-01 -0.26847417D-01 -0.43879236D-01 -0.58900569D-01 -0.57148289D-01
 -0.56951498D-02 -0.24100910D-01 -0.65788204D-01  0.74449405D-04  0.29624784D+00
  0.29138354D+00  0.22335707D+00  0.19387395D+00  0.19069060D+00  0.14617193D+00
  0.34123134D+00  0.33562843D+00  0.25727253D+00  0.33011992D-01  0.94504770D-01
  0.56685326D-01  0.11163540D+00  0.49230493D-01  0.24572498D-01  0.17152977D-01
  0.29484393D-01 -0.92312239D-03 -0.45785099D-02  0.55016323D-02 -0.40987744D-03
  0.57787439D-02  0.48480023D-02 -0.23565913D-02 -0.42509546D-02 -0.62670275D-02
 -0.75897456D-02 -0.81685081D-02  0.19271111D-02 -0.10807399D-02  0.71669375D-02
 -0.42390748D-02 -0.76466862D-02 -0.11273231D-01 -0.13723814D-01 -0.39601616D-02
  0.23919521D-02  0.33194727D-02  0.90469829D-02 -0.11632859D-02 -0.21394624D-02
 -0.35018417D-02 -0.47191758D-02 -0.46682700D-02 -0.51959177D-03 -0.24103727D-02
 -0.64430361D-02  0.92025750D-05  0.21614710D+00  0.22192809D+00  0.16772075D+00
  0.14823025D+01  0.15219476D+01  0.11502023D+01 -0.23651354D+00 -0.24283925D+00
 -0.18352422D+00  0.64782542D-02  0.67800717D-01  0.47411065D+00 -0.75783584D-01
 -0.60203983D-02  0.16543771D-01  0.97854648D-01 -0.16645225D-01 -0.73798632D-02
  0.63643585D-02  0.10155047D-02 -0.57443817D-01  0.10461081D-01 -0.81678358D-02
END DATA
 TOTAL ENERGY =   -169.912391946827 THE VIRIAL(-V/T)=   2.00528932
